2
Lattice="2.7722401293773857 -3.3715578125650444e-17 8.726244401041731e-48 -1.3861200646886929 2.4008303774314754 5.758485193313311e-47 -1.686843148383811e-47 -1.3827504413056072e-46 5.358931119734206" Properties=species:S:1:pos:R:3:forces:R:3 n_minim_iter=1 energy=-325.08307944469817 stress="0.05335632852523195 -1.7397172309095474e-16 3.098126575592345e-17 -1.7397172309095474e-16 0.05335632852523202 -3.296724433002111e-17 3.098126575592345e-17 -3.296724433002111e-17 0.048211556306197105" free_energy=-325.08307944469817 pbc="T T T"
Si       0.00000000      -0.00000000       0.00000000      -0.00000000      -0.00000000      -0.00000000
Si       0.00000000       1.60055358       2.67946556       0.00000000       0.00000000       0.00000000
