2
Lattice="2.5346033271012938 -2.477240600980333e-17 3.2021190706405403e-48 -1.2673016635506469 2.1950308697862804 2.265547512250554e-47 -4.9587534602891716e-48 -4.3374368460765826e-47 3.925048613576332" Properties=species:S:1:pos:R:3:forces:R:3 n_minim_iter=1 energy=-324.58545874923533 stress="-0.3451670394315697 1.3548730215444048e-15 -1.4225244207136672e-15 1.3548730215444048e-15 -0.34516703943158417 -3.686386242005066e-15 -1.4225244207136672e-15 -3.686386242005066e-15 -0.3408522150376224" free_energy=-324.58545874923533 pbc="T T T"
Si       0.00000000       0.00000000       0.00000000       0.00000000      -0.00000000      -0.00000000
Si       0.00000000       1.46335391       1.96252431      -0.00000000      -0.00000000       0.00000000
