2
Lattice="2.5624583413009296 -2.5044652050745514e-17 3.2373100100778466e-48 -1.2812291706504648 2.219154019705941 2.290445632381983e-47 -5.0132496201308046e-48 -4.385104804074437e-47 3.9681844698645294" Properties=species:S:1:pos:R:3:forces:R:3 n_minim_iter=1 energy=-324.58545874923533 stress="-0.3451670394315697 1.3548730215444048e-15 -1.4225244207136672e-15 1.3548730215444048e-15 -0.34516703943158417 -3.686386242005066e-15 -1.4225244207136672e-15 -3.686386242005066e-15 -0.3408522150376224" free_energy=-324.58545874923533 pbc="T T T"
Si       0.00000000       0.00000000       0.00000000       0.00000000      -0.00000000      -0.00000000
Si       0.00000000       1.47943601       1.98409223      -0.00000000      -0.00000000       0.00000000
