2
Lattice="2.5624583413009305 -2.504465205074553e-17 3.2373100100778484e-48 -1.2812291706504653 2.2191540197059414 2.2904456323819835e-47 -9.549408733662509e-49 -4.3516963455014505e-47 3.9681844698645294" Properties=species:S:1:pos:R:3:forces:R:3 n_minim_iter=2 energy=-324.8029914210127 stress="-0.25473207124387026 -1.981311524448529e-15 6.420420482735966e-16 -1.981311524448529e-15 -0.2547320712438952 -4.084611782811006e-15 6.420420482735966e-16 -4.084611782811006e-15 -0.256946648810952" free_energy=-324.8029914210127 pbc="T T T"
Si       0.00000000      -0.00000000      -0.00000000       0.00000000       0.00000000      -0.00000000
Si       0.00000000       1.47943601       1.98409223      -0.00000000      -0.00000000       0.00000000
