2
Lattice="2.762443581170476 -2.129649178594199e-17 5.997938588405246e-48 -1.381221790585238 2.3923463178148916 5.198642047562252e-47 -1.0283335521764736e-47 -1.088550715312339e-46 4.736149559789729" Properties=species:S:1:pos:R:3:forces:R:3 n_minim_iter=1 energy=-325.1895585599731 stress="0.03577542964105321 1.0818502818526399e-16 -3.14800696768596e-16 1.0818502818526399e-16 0.035775429641054526 1.2414675365522097e-16 -3.14800696768596e-16 1.2414675365522097e-16 0.026987623863333494" free_energy=-325.1895585599731 pbc="T T T"
Si       0.00000000       0.00000000       0.00000000      -0.00000000      -0.00000000      -0.00000000
Si       0.00000000       1.59489755       2.36807478       0.00000000       0.00000000       0.00000000
