2
Lattice="2.5792490537504045 -1.9884191178239434e-17 5.600178600586078e-48 -1.2896245268752022 2.233695203234826 4.853888301414884e-47 -9.601384656214916e-48 -1.0163622604154867e-46 4.422066518850724" Properties=species:S:1:pos:R:3:forces:R:3 n_minim_iter=1 energy=-325.14694957283626 stress="-0.06985880293775033 -4.872763929763111e-16 1.313145583014822e-16 -4.872763929763111e-16 -0.0698588029377577 -7.333556881284618e-16 1.313145583014822e-16 -7.333556881284618e-16 -0.05964172220823042" free_energy=-325.14694957283626 pbc="T T T"
Si       0.00000000       0.00000000       0.00000000      -0.00000000       0.00000000      -0.00000000
Si       0.00000000       1.48913014       2.21103326       0.00000000      -0.00000000       0.00000000
