2
Lattice="2.825247779928824 -2.178066786544516e-17 6.134301817618043e-48 -1.412623889964412 2.446736349403948 5.316833257205085e-47 -1.0517127318422556e-47 -1.1132989331398516e-46 4.843825995366476" Properties=species:S:1:pos:R:3:forces:R:3 n_minim_iter=1 energy=-325.10504804839155 stress="0.047742341747141245 1.0361627343118208e-16 -6.465655462105761e-17 1.0361627343118208e-16 0.04774234174714156 -6.051190368381033e-17 -6.465655462105761e-17 -6.051190368381033e-17 0.03141412543746397" free_energy=-325.10504804839155 pbc="T T T"
Si       0.00000000       0.00000000       0.00000000       0.00000000      -0.00000000      -0.00000000
Si       0.00000000       1.63115757       2.42191300      -0.00000000       0.00000000       0.00000000
2
Lattice="2.714468229944161 -3.3012964752383404e-17 8.544394456433959e-48 -1.3572341149720806 2.350798444897422 5.638481653955222e-47 -6.818756199296631e-48 -1.0739733288727946e-46 5.247254058848288" Properties=species:S:1:pos:R:3:forces:R:3 n_minim_iter=2 energy=-325.1478338543868 stress="0.03846965003725821 -2.014300355502179e-16 1.8485143180122878e-16 -2.014300355502179e-16 0.03846965003725862 -7.709050743279945e-17 1.8485143180122878e-16 -7.709050743279945e-17 0.033273045049592734" free_energy=-325.1478338543868 pbc="T T T"
Si       0.00000000      -0.00000000      -0.00000000      -0.00000000       0.00000000      -0.00000000
Si      -0.00000000       1.56719896       2.62362703       0.00000000       0.00000000       0.00000000
