2
Lattice="2.740861109024009 -2.1130106146821434e-17 5.95107777886588e-48 -1.3704305545120046 2.373655348659581 5.158025997353753e-47 -1.0202993680945246e-47 -1.080046065424325e-46 4.6991468797522415" Properties=species:S:1:pos:R:3:forces:R:3 n_minim_iter=1 energy=-325.21096278824655 stress="0.027724953770079813 2.814415350721251e-16 2.814415350721252e-17 2.814415350721251e-16 0.027724953770076874 1.3799713977730008e-16 2.814415350721252e-17 1.3799713977730008e-16 0.02108573968205209" free_energy=-325.21096278824655 pbc="T T T"
Si       0.00000000       0.00000000       0.00000000      -0.00000000      -0.00000000       0.00000000
Si       0.00000000       1.58243690       2.34957344       0.00000000       0.00000000      -0.00000000
