2
Lattice="2.804624798134472 -2.162167922025482e-17 6.089524295588104e-48 -1.402312399067236 2.4288763232682555 5.278022871706892e-47 -1.0440357228819233e-47 -1.1051723738366546e-46 4.808468340711502" Properties=species:S:1:pos:R:3:forces:R:3 n_minim_iter=1 energy=-325.1637629238294 stress="0.041512295586364066 3.986400628734205e-17 -1.750549841313716e-16 3.986400628734205e-17 0.0415122955863645 -1.8198785479003978e-16 -1.750549841313716e-16 -1.8198785479003978e-16 0.029916850771261366" free_energy=-325.1637629238294 pbc="T T T"
Si       0.00000000      -0.00000000       0.00000000      -0.00000000      -0.00000000      -0.00000000
Si       0.00000000       1.61925088       2.40423417       0.00000000       0.00000000       0.00000000
