2
Lattice="2.8046247981344714 -2.1621679220254823e-17 6.089524295588103e-48 -1.4023123990672357 2.428876323268255 5.278022871706893e-47 -1.0440357228819233e-47 -1.1051723738366552e-46 4.808468340711503" Properties=species:S:1:pos:R:3:forces:R:3 n_minim_iter=1 energy=-325.1352237171926 stress="0.04530216051248663 -3.2199332614703354e-17 -1.4828640019929175e-16 -3.2199332614703354e-17 0.04530216051248645 -7.287217381222338e-17 -1.4828640019929175e-16 -7.287217381222338e-17 0.030928921600286364" free_energy=-325.1352237171926 pbc="T T T"
Si       0.00000000       0.00000000       0.00000000      -0.00000000      -0.00000000       0.00000000
Si       0.00000000       1.61925088       2.40423417       0.00000000       0.00000000      -0.00000000
