2
Lattice="2.6586960074637003 -2.7191585185940255e-17 1.525212144982586e-48 -1.3293480037318501 2.302498283403826 2.408396924739169e-47 -2.2306563913286517e-47 -1.2925207362155588e-46 4.042828669697675" Properties=species:S:1:pos:R:3:forces:R:3 n_minim_iter=2 energy=-325.12901173244614 stress="-0.06825406364302307 -4.181619743375058e-16 1.176511439247008e-16 -4.181619743375058e-16 -0.0682540636430269 -1.1332717207424669e-15 1.176511439247008e-16 -1.1332717207424669e-15 -0.06341198877754965" free_energy=-325.12901173244614 pbc="T T T"
Si       0.00000000      -0.00000000      -0.00000000       0.00000000      -0.00000000      -0.00000000
Si       0.00000000       1.53499886       2.02141433      -0.00000000       0.00000000       0.00000000
