2
Lattice="2.589720582578405 -2.531110451786005e-17 3.271752063305499e-48 -1.2948602912892024 2.242763813216335 2.31481390423113e-47 -9.651005813606512e-49 -4.397994462362595e-47 4.010402366915707" Properties=species:S:1:pos:R:3:forces:R:3 n_minim_iter=2 energy=-324.8029914210127 stress="-0.25473207124387026 -1.981311524448529e-15 6.420420482735966e-16 -1.981311524448529e-15 -0.2547320712438952 -4.084611782811006e-15 6.420420482735966e-16 -4.084611782811006e-15 -0.256946648810952" free_energy=-324.8029914210127 pbc="T T T"
Si       0.00000000      -0.00000000      -0.00000000       0.00000000       0.00000000      -0.00000000
Si       0.00000000       1.49517588       2.00520118      -0.00000000      -0.00000000       0.00000000
