2
Lattice="2.7836939822764064 -2.146031739153451e-17 6.044078390745877e-48 -1.3918469911382032 2.4107497050132363 5.238633173343016e-47 -1.0362441211391806e-47 -1.0969245114261164e-46 4.772582911235975" Properties=species:S:1:pos:R:3:forces:R:3 n_minim_iter=1 energy=-325.1895585599731 stress="0.03577542964105321 1.0818502818526399e-16 -3.14800696768596e-16 1.0818502818526399e-16 0.035775429641054526 1.2414675365522097e-16 -3.14800696768596e-16 1.2414675365522097e-16 0.026987623863333494" free_energy=-325.1895585599731 pbc="T T T"
Si       0.00000000       0.00000000       0.00000000      -0.00000000      -0.00000000      -0.00000000
Si       0.00000000       1.60716647       2.38629146       0.00000000       0.00000000       0.00000000
