2
Lattice="2.605507757100578 -2.6647606921189466e-17 1.4946996812799024e-48 -1.302753878550289 2.256435907406515 2.3602160051277527e-47 -2.2728490610067877e-48 -4.275395008703507e-47 3.9619503056968877" Properties=species:S:1:pos:R:3:forces:R:3 n_minim_iter=1 energy=-324.9573827054879 stress="-0.1752818377515708 -4.0672841197520037e-16 -7.333045341348867e-16 -4.0672841197520037e-16 -0.17528183775156564 -1.7703735183533469e-15 -7.333045341348867e-16 -1.7703735183533469e-15 -0.18920914685677911" free_energy=-324.9573827054879 pbc="T T T"
Si       0.00000000      -0.00000000       0.00000000      -0.00000000      -0.00000000      -0.00000000
Si       0.00000000       1.50429060       1.98097515       0.00000000       0.00000000       0.00000000
