2
Lattice="2.7380977424348205 0.0 0.0 -1.3690488712174103 2.371262202993375 0.0 0.0 0.0 4.928575936382677" Properties=species:S:1:pos:R:3:forces:R:3 n_minim_iter=1 energy=-325.17604923195466 stress="0.03394571707452314 4.68375303199441e-17 -2.4546335334341077e-16 4.68375303199441e-17 0.03394571707452248 -9.194033729470508e-17 -2.4546335334341077e-16 -9.194033729470508e-17 0.02316936029932006" free_energy=-325.17604923195466 pbc="T T T"
Si       0.00000000       0.00000000       0.00000000       0.00000000       0.00000000       0.00000000
Si       0.00000000       1.58084147       2.46428797      -0.00000000      -0.00000000      -0.00000000
2
Lattice="2.630735394298194 -2.999159381640685e-17 -4.991853052447071e-50 -1.315367697149097 2.2782836820971077 9.477563389688096e-66 -5.675193387351218e-49 2.572932384300216e-49 4.795837863690732" Properties=species:S:1:pos:R:3:forces:R:3 n_minim_iter=2 energy=-325.2243731139469 stress="-0.011462697639653602 7.723258999094392e-17 1.1966746761670203e-16 7.723258999094392e-17 -0.011462697639654967 1.5994010052799017e-16 1.1966746761670203e-16 1.5994010052799017e-16 0.004412589623970334" free_energy=-325.2243731139469 pbc="T T T"
Si       0.00000000      -0.00000000       0.00000000       0.00000000      -0.00000000       0.00000000
Si      -0.00000000       1.51885579       2.39791893      -0.00000000       0.00000000      -0.00000000
2
Lattice="2.6455070890613617 -1.1165304336437804e-17 -1.202664672369137e-49 -1.3227535445306808 2.291076345018961 4.057385786035947e-49 -3.5831365503926404e-49 2.061886748592637e-48 4.689496312328408" Properties=species:S:1:pos:R:3:forces:R:3 n_minim_iter=3 energy=-325.22825403789477 stress="-0.014961612848854285 2.6756444408582414e-16 -5.268025895467608e-17 2.6756444408582414e-16 -0.01496161284885231 -7.802913572657423e-16 -5.268025895467608e-17 -7.802913572657423e-16 -0.006365570520578557" free_energy=-325.22825403789477 pbc="T T T"
Si       0.00000000       0.00000000       0.00000000      -0.00000000       0.00000000       0.00000000
Si      -0.00000000       1.52738423       2.34474816       0.00000000      -0.00000000      -0.00000000
2
Lattice="2.6966459399886293 -2.0789238376491426e-17 5.855075865792313e-48 -1.3483229699943147 2.3353638890423203 5.074817479194625e-47 2.0528464540372664e-47 -3.7146946631459793e-47 4.623340932151961" Properties=species:S:1:pos:R:3:forces:R:3 n_minim_iter=4 energy=-325.23278413860436 stress="0.004353879236065923 3.5080325532861003e-16 5.338310407174501e-17 3.5080325532861003e-16 0.00435387923606675 9.284847029621362e-16 5.338310407174501e-17 9.284847029621362e-16 -0.0005481083859857475" free_energy=-325.23278413860436 pbc="T T T"
Si       0.00000000      -0.00000000       0.00000000       0.00000000      -0.00000000      -0.00000000
Si      -0.00000000       1.55690926       2.31167047      -0.00000000       0.00000000       0.00000000
