2
Lattice="2.5430057266080746 -3.2561543996692445e-17 -1.7793007185043262e-47 -1.2715028633040373 2.2023075612118963 -8.781797878989308e-47 8.3640600949819365e-47 -9.692946779723386e-47 3.8991537903631053" Properties=species:S:1:pos:R:3:forces:R:3 n_minim_iter=2 energy=-324.299876875465 stress="-0.44507949649740186 -3.349154267358292e-16 -1.11135361006505e-15 -3.349154267358292e-16 -0.44507949649740547 5.727244451125793e-15 -1.11135361006505e-15 5.727244451125793e-15 -0.4465208751386327" free_energy=-324.299876875465 pbc="T T T"
Si       0.00000000       0.00000000       0.00000000      -0.00000000       0.00000000       0.00000000
Si       0.00000000       1.46820504       1.94957690       0.00000000      -0.00000000      -0.00000000
