2
Lattice="2.673983978318541 -2.061453063445824e-17 5.805871221282472e-48 -1.3369919891592705 2.315738054536434 5.032169937857888e-47 -9.954040189744573e-48 -1.0536928942813227e-46 4.584487490757048" Properties=species:S:1:pos:R:3:forces:R:3 n_minim_iter=1 energy=-325.2294176551919 stress="-0.011018468087282912 8.017242736049613e-17 -1.5037218692736957e-15 8.017242736049613e-17 -0.011018468087284405 6.257360184233844e-16 -1.5037218692736957e-15 6.257360184233844e-16 -0.015000307361921221" free_energy=-325.2294176551919 pbc="T T T"
Si       0.00000000       0.00000000       0.00000000       0.00000000       0.00000000      -0.00000000
Si       0.00000000       1.54382537       2.29224375      -0.00000000      -0.00000000       0.00000000
