2
Lattice="2.7339974498171613 -3.325047626207684e-17 8.605867033707326e-48 -1.3669987249085807 2.367711245423532 5.679047664916503e-47 -1.6635733741285435e-47 -1.363675585026657e-46 5.285005386019593" Properties=species:S:1:pos:R:3:forces:R:3 n_minim_iter=1 energy=-325.1181786378795 stress="0.04630717944646676 4.867760249703196e-18 3.975337537257609e-17 4.867760249703196e-18 0.04630717944646654 1.3224082011693678e-16 3.975337537257609e-17 1.3224082011693678e-16 0.04126881382062834" free_energy=-325.1181786378795 pbc="T T T"
Si       0.00000000       0.00000000       0.00000000       0.00000000       0.00000000      -0.00000000
Si       0.00000000       1.57847416       2.64250269      -0.00000000       0.00000000       0.00000000
