2
Lattice="2.6509312451750398 -2.0436810319958252e-17 5.755818116621043e-48 -1.3254656225875199 2.2957738020074983 4.988787003760005e-47 -9.868225228228549e-48 -1.0446088828197636e-46 4.5449640801528455" Properties=species:S:1:pos:R:3:forces:R:3 n_minim_iter=1 energy=-325.2294176551919 stress="-0.011018468087282912 8.017242736049613e-17 -1.5037218692736957e-15 8.017242736049613e-17 -0.011018468087284405 6.257360184233844e-16 -1.5037218692736957e-15 6.257360184233844e-16 -0.015000307361921221" free_energy=-325.2294176551919 pbc="T T T"
Si       0.00000000       0.00000000      -0.00000000       0.00000000       0.00000000      -0.00000000
Si       0.00000000       1.53051587       2.27248204      -0.00000000      -0.00000000       0.00000000
