2
Lattice="2.6035830290988917 -2.0071788966538442e-17 5.653013594483096e-48 -1.3017915145494459 2.254769044061679 4.899682404973509e-47 -9.691969106443163e-48 -1.0259511499235086e-46 4.463786591405414" Properties=species:S:1:pos:R:3:forces:R:3 n_minim_iter=1 energy=-325.18739048166793 stress="-0.04636534512272386 -8.340948985920366e-16 1.422215615762759e-16 -8.340948985920366e-16 -0.04636534512272495 -8.837067903768599e-17 1.422215615762759e-16 -8.837067903768599e-17 -0.044461152026716716" free_energy=-325.18739048166793 pbc="T T T"
Si       0.00000000      -0.00000000       0.00000000       0.00000000       0.00000000       0.00000000
Si       0.00000000       1.50317936       2.23189330      -0.00000000      -0.00000000      -0.00000000
