2
Lattice="2.7909720498200956 -3.3943392996533036e-17 8.785207300449968e-48 -1.3954860249100478 2.4170526963965306 5.797395057350194e-47 -1.6982410829710838e-47 -1.392093633110739e-46 5.395141212189423" Properties=species:S:1:pos:R:3:forces:R:3 n_minim_iter=1 energy=-324.99840973863957 stress="0.06585981107331981 2.1353241628698e-17 -1.0676620814349e-17 2.1353241628698e-17 0.06585981107331988 2.783547569455275e-17 -1.0676620814349e-17 2.783547569455275e-17 0.061909082642054865" free_energy=-324.99840973863957 pbc="T T T"
Si       0.00000000       0.00000000       0.00000000       0.00000000       0.00000000       0.00000000
Si       0.00000000       1.61136846       2.69757061      -0.00000000       0.00000000      -0.00000000
