2
Lattice="2.632370555509104 -2.6922343885929925e-17 1.5101100426998933e-48 -1.316185277754552 2.2796997732450386 2.3845498443088256e-47 -2.296282146543552e-48 -4.319474353285243e-47 4.0027980337746465" Properties=species:S:1:pos:R:3:forces:R:3 n_minim_iter=1 energy=-325.06383802305015 stress="-0.11466242698678446 2.706655151956977e-16 4.85803945626643e-16 2.706655151956977e-16 -0.11466242698677989 6.969628254619036e-15 4.85803945626643e-16 6.969628254619036e-15 -0.11613008399572236" free_energy=-325.06383802305015 pbc="T T T"
Si       0.00000000       0.00000000       0.00000000      -0.00000000      -0.00000000      -0.00000000
Si      -0.00000000       1.51979985       2.00139902       0.00000000       0.00000000       0.00000000
