2
Lattice="2.772240129377386 -3.371557812565045e-17 8.726244401041732e-48 -1.386120064688693 2.400830377431475 5.75848519331331e-47 -1.6868431483838122e-47 -1.3827504413056066e-46 5.358931119734206" Properties=species:S:1:pos:R:3:forces:R:3 n_minim_iter=1 energy=-325.04310235918587 stress="0.05981365509318613 -1.1672690394696434e-17 -3.073808470603394e-17 -1.1672690394696434e-17 0.05981365509318576 7.003614236817861e-17 -3.073808470603394e-17 7.003614236817861e-17 0.05498852806099178" free_energy=-325.04310235918587 pbc="T T T"
Si       0.00000000       0.00000000       0.00000000       0.00000000      -0.00000000       0.00000000
Si       0.00000000       1.60055358       2.67946556      -0.00000000       0.00000000      -0.00000000
