2
Lattice="2.6509312451750398 -2.0436810319958246e-17 5.755818116621043e-48 -1.3254656225875199 2.2957738020074983 4.988787003760005e-47 -9.868225228228549e-48 -1.0446088828197636e-46 4.5449640801528455" Properties=species:S:1:pos:R:3:forces:R:3 n_minim_iter=1 energy=-325.2144229721853 stress="-0.02817600271244688 7.567852268042163e-16 1.7540437145049282e-16 7.567852268042163e-16 -0.0281760027124484 -4.950731009661123e-16 1.7540437145049282e-16 -4.950731009661123e-16 -0.030078831458501806" free_energy=-325.2144229721853 pbc="T T T"
Si       0.00000000       0.00000000       0.00000000      -0.00000000      -0.00000000      -0.00000000
Si       0.00000000       1.53051587       2.27248204      -0.00000000       0.00000000       0.00000000
