2
Lattice="2.7624435811704764 -2.1296491785942003e-17 5.997938588405247e-48 -1.3812217905852382 2.3923463178148916 5.198642047562252e-47 -1.0283335521764752e-47 -1.0885507153123387e-46 4.73614955978973" Properties=species:S:1:pos:R:3:forces:R:3 n_minim_iter=1 energy=-325.21096278824655 stress="0.027724953770079813 2.814415350721251e-16 2.814415350721252e-17 2.814415350721251e-16 0.027724953770076874 1.3799713977730008e-16 2.814415350721252e-17 1.3799713977730008e-16 0.02108573968205209" free_energy=-325.21096278824655 pbc="T T T"
Si       0.00000000      -0.00000000       0.00000000      -0.00000000      -0.00000000       0.00000000
Si       0.00000000       1.59489755       2.36807478       0.00000000       0.00000000      -0.00000000
