2
Lattice="2.7909720498200956 -3.3943392996533036e-17 8.785207300449967e-48 -1.3954860249100478 2.41705269639653 5.797395057350192e-47 -1.6982410829710845e-47 -1.392093633110739e-46 5.395141212189423" Properties=species:S:1:pos:R:3:forces:R:3 n_minim_iter=1 energy=-325.04310235918587 stress="0.05981365509318613 -1.1672690394696434e-17 -3.073808470603394e-17 -1.1672690394696434e-17 0.05981365509318576 7.003614236817861e-17 -3.073808470603394e-17 7.003614236817861e-17 0.05498852806099178" free_energy=-325.04310235918587 pbc="T T T"
Si       0.00000000      -0.00000000       0.00000000       0.00000000      -0.00000000       0.00000000
Si       0.00000000       1.61136846       2.69757061      -0.00000000       0.00000000      -0.00000000
