2
Lattice="2.6966459399886293 -2.078923837649143e-17 5.855075865792313e-48 -1.3483229699943147 2.33536388904232 5.074817479194623e-47 -1.0038400484746926e-47 -1.0626229208543558e-46 4.623340932151961" Properties=species:S:1:pos:R:3:forces:R:3 n_minim_iter=1 energy=-325.23278413860436 stress="0.004353879236065923 3.5080325532861003e-16 5.338310407174501e-17 3.5080325532861003e-16 0.00435387923606675 9.284847029621362e-16 5.338310407174501e-17 9.284847029621362e-16 -0.0005481083859857475" free_energy=-325.23278413860436 pbc="T T T"
Si       0.00000000       0.00000000       0.00000000       0.00000000      -0.00000000      -0.00000000
Si       0.00000000       1.55690926       2.31167047      -0.00000000       0.00000000       0.00000000
