2
Lattice="2.7339974498171613 -3.325047626207684e-17 8.605867033707326e-48 -1.3669987249085807 2.3677112454235325 5.679047664916506e-47 -6.867813685992353e-48 -1.081700021359347e-46 5.285005386019595" Properties=species:S:1:pos:R:3:forces:R:3 n_minim_iter=2 energy=-325.1478338543868 stress="0.03846965003725821 -2.014300355502179e-16 1.8485143180122878e-16 -2.014300355502179e-16 0.03846965003725862 -7.709050743279945e-17 1.8485143180122878e-16 -7.709050743279945e-17 0.033273045049592734" free_energy=-325.1478338543868 pbc="T T T"
Si       0.00000000      -0.00000000      -0.00000000      -0.00000000       0.00000000      -0.00000000
Si      -0.00000000       1.57847416       2.64250269       0.00000000       0.00000000       0.00000000
