2
Lattice="2.7836939822764064 -2.1460317391534506e-17 6.044078390745876e-48 -1.3918469911382032 2.4107497050132367 5.238633173343019e-47 -1.0362441211391806e-47 -1.0969245114261166e-46 4.772582911235975" Properties=species:S:1:pos:R:3:forces:R:3 n_minim_iter=1 energy=-325.1637629238294 stress="0.041512295586364066 3.986400628734205e-17 -1.750549841313716e-16 3.986400628734205e-17 0.0415122955863645 -1.8198785479003978e-16 -1.750549841313716e-16 -1.8198785479003978e-16 0.029916850771261366" free_energy=-325.1637629238294 pbc="T T T"
Si       0.00000000       0.00000000       0.00000000      -0.00000000      -0.00000000      -0.00000000
Si       0.00000000       1.60716647       2.38629146       0.00000000       0.00000000       0.00000000
