2
Lattice="2.825247779928824 -2.1780667865445167e-17 6.134301817618042e-48 -1.412623889964412 2.446736349403948 5.316833257205084e-47 -1.0517127318422552e-47 -1.1132989331398514e-46 4.843825995366476" Properties=species:S:1:pos:R:3:forces:R:3 n_minim_iter=1 energy=-325.1352237171926 stress="0.04530216051248663 -3.2199332614703354e-17 -1.4828640019929175e-16 -3.2199332614703354e-17 0.04530216051248645 -7.287217381222338e-17 -1.4828640019929175e-16 -7.287217381222338e-17 0.030928921600286364" free_energy=-325.1352237171926 pbc="T T T"
Si       0.00000000      -0.00000000       0.00000000      -0.00000000      -0.00000000       0.00000000
Si       0.00000000       1.63115757       2.42191300       0.00000000       0.00000000      -0.00000000
