2
Lattice="2.740861109024009 -2.1130106146821434e-17 5.951077778865881e-48 -1.3704305545120046 2.3736553486595815 5.158025997353754e-47 -1.0202993680945221e-47 -1.0800460654243255e-46 4.6991468797522415" Properties=species:S:1:pos:R:3:forces:R:3 n_minim_iter=1 energy=-325.2260286402106 stress="0.01724380510547979 -3.571273861245659e-16 9.151389269442003e-16 -3.571273861245659e-16 0.017243805105477596 1.488030775519025e-17 9.151389269442003e-16 1.488030775519025e-17 0.011793585364470878" free_energy=-325.2260286402106 pbc="T T T"
Si       0.00000000      -0.00000000       0.00000000       0.00000000      -0.00000000       0.00000000
Si       0.00000000       1.58243690       2.34957344      -0.00000000       0.00000000      -0.00000000
