2
Lattice="2.6323705555091035 -2.6922343885929925e-17 1.510110042699893e-48 -1.3161852777545517 2.279699773245038 2.384549844308825e-47 -2.2962821465435485e-48 -4.319474353285241e-47 4.002798033774645" Properties=species:S:1:pos:R:3:forces:R:3 n_minim_iter=1 energy=-324.9573827054879 stress="-0.1752818377515708 -4.0672841197520037e-16 -7.333045341348867e-16 -4.0672841197520037e-16 -0.17528183775156564 -1.7703735183533469e-15 -7.333045341348867e-16 -1.7703735183533469e-15 -0.18920914685677911" free_energy=-324.9573827054879 pbc="T T T"
Si       0.00000000       0.00000000       0.00000000      -0.00000000      -0.00000000      -0.00000000
Si       0.00000000       1.51979985       2.00139902       0.00000000       0.00000000       0.00000000
