2
Lattice="2.753251587354072 -3.3484642260717626e-17 8.666473727946359e-48 -1.376625793677036 2.3843858176584574 5.719042276040333e-47 -1.6752890655789355e-47 -1.3732792506305108e-46 5.3222249600877936" Properties=species:S:1:pos:R:3:forces:R:3 n_minim_iter=1 energy=-325.08307944469817 stress="0.05335632852523195 -1.7397172309095474e-16 3.098126575592345e-17 -1.7397172309095474e-16 0.05335632852523202 -3.296724433002111e-17 3.098126575592345e-17 -3.296724433002111e-17 0.048211556306197105" free_energy=-325.08307944469817 pbc="T T T"
Si       0.00000000       0.00000000       0.00000000      -0.00000000      -0.00000000      -0.00000000
Si       0.00000000       1.58959055       2.66111248       0.00000000       0.00000000       0.00000000
