2
Lattice="2.673983978318541 -2.061453063445824e-17 5.805871221282473e-48 -1.3369919891592705 2.315738054536434 5.032169937857889e-47 -9.954040189744575e-48 -1.0536928942813233e-46 4.584487490757048" Properties=species:S:1:pos:R:3:forces:R:3 n_minim_iter=1 energy=-325.23278413860436 stress="0.004353879236065923 3.5080325532861003e-16 5.338310407174501e-17 3.5080325532861003e-16 0.00435387923606675 9.284847029621362e-16 5.338310407174501e-17 9.284847029621362e-16 -0.0005481083859857475" free_energy=-325.23278413860436 pbc="T T T"
Si       0.00000000       0.00000000       0.00000000       0.00000000      -0.00000000      -0.00000000
Si       0.00000000       1.54382537       2.29224375      -0.00000000       0.00000000       0.00000000
