2
Lattice="2.627470446249906 -2.0255944106071972e-17 5.704879001647971e-48 -1.313735223124953 2.275456154145254 4.944636130745642e-47 -9.780891221264476e-48 -1.035364071586033e-46 4.504741049623292" Properties=species:S:1:pos:R:3:forces:R:3 n_minim_iter=1 energy=-325.18739048166793 stress="-0.04636534512272386 -8.340948985920366e-16 1.422215615762759e-16 -8.340948985920366e-16 -0.04636534512272495 -8.837067903768599e-17 1.422215615762759e-16 -8.837067903768599e-17 -0.044461152026716716" free_energy=-325.18739048166793 pbc="T T T"
Si       0.00000000       0.00000000       0.00000000       0.00000000       0.00000000       0.00000000
Si       0.00000000       1.51697077       2.25237052      -0.00000000      -0.00000000      -0.00000000
