2
Lattice="2.6035830290988913 -2.007178896653844e-17 5.653013594483093e-48 -1.3017915145494456 2.2547690440616797 4.899682404973511e-47 -9.69196910644315e-48 -1.0259511499235086e-46 4.463786591405414" Properties=species:S:1:pos:R:3:forces:R:3 n_minim_iter=1 energy=-325.14694957283626 stress="-0.06985880293775033 -4.872763929763111e-16 1.313145583014822e-16 -4.872763929763111e-16 -0.0698588029377577 -7.333556881284618e-16 1.313145583014822e-16 -7.333556881284618e-16 -0.05964172220823042" free_energy=-325.14694957283626 pbc="T T T"
Si       0.00000000       0.00000000       0.00000000      -0.00000000       0.00000000      -0.00000000
Si       0.00000000       1.50317936       2.23189330       0.00000000      -0.00000000       0.00000000
