2
Lattice="2.684510204468942 -2.7455597669843708e-17 1.5400209560218474e-48 -1.342255102234471 2.324854033788662 2.43178088157647e-47 -2.2523146039919687e-47 -1.3050702660694281e-46 4.082081888360148" Properties=species:S:1:pos:R:3:forces:R:3 n_minim_iter=2 energy=-325.12901173244614 stress="-0.06825406364302307 -4.181619743375058e-16 1.176511439247008e-16 -4.181619743375058e-16 -0.0682540636430269 -1.1332717207424669e-15 1.176511439247008e-16 -1.1332717207424669e-15 -0.06341198877754965" free_energy=-325.12901173244614 pbc="T T T"
Si       0.00000000      -0.00000000      -0.00000000       0.00000000      -0.00000000      -0.00000000
Si       0.00000000       1.54990269       2.04104094      -0.00000000       0.00000000       0.00000000
