2
Lattice="2.753251587354073 -3.3484642260717644e-17 8.666473727946363e-48 -1.3766257936770365 2.384385817658457 5.719042276040332e-47 -1.675289065578935e-47 -1.3732792506305104e-46 5.3222249600877936" Properties=species:S:1:pos:R:3:forces:R:3 n_minim_iter=1 energy=-325.1181786378795 stress="0.04630717944646676 4.867760249703196e-18 3.975337537257609e-17 4.867760249703196e-18 0.04630717944646654 1.3224082011693678e-16 3.975337537257609e-17 1.3224082011693678e-16 0.04126881382062834" free_energy=-325.1181786378795 pbc="T T T"
Si       0.00000000       0.00000000       0.00000000       0.00000000       0.00000000      -0.00000000
Si       0.00000000       1.58959055       2.66111248      -0.00000000       0.00000000       0.00000000
