2
Lattice="2.627470446249906 -2.0255944106071972e-17 5.70487900164797e-48 -1.313735223124953 2.275456154145254 4.944636130745642e-47 -9.780891221264475e-48 -1.0353640715860326e-46 4.504741049623293" Properties=species:S:1:pos:R:3:forces:R:3 n_minim_iter=1 energy=-325.2144229721853 stress="-0.02817600271244688 7.567852268042163e-16 1.7540437145049282e-16 7.567852268042163e-16 -0.0281760027124484 -4.950731009661123e-16 1.7540437145049282e-16 -4.950731009661123e-16 -0.030078831458501806" free_energy=-325.2144229721853 pbc="T T T"
Si       0.00000000       0.00000000       0.00000000      -0.00000000      -0.00000000      -0.00000000
Si       0.00000000       1.51697077       2.25237052      -0.00000000       0.00000000       0.00000000
