2
Lattice="2.7189332807717452 -2.096105805568901e-17 5.903467117011767e-48 -1.3594666403858726 2.354665292343299 5.116760021555746e-47 -1.0121366234607976e-47 -1.0714053267348736e-46 4.66155209416748" Properties=species:S:1:pos:R:3:forces:R:3 n_minim_iter=1 energy=-325.2260286402106 stress="0.01724380510547979 -3.571273861245659e-16 9.151389269442003e-16 -3.571273861245659e-16 0.017243805105477596 1.488030775519025e-17 9.151389269442003e-16 1.488030775519025e-17 0.011793585364470878" free_energy=-325.2260286402106 pbc="T T T"
Si       0.00000000       0.00000000       0.00000000       0.00000000      -0.00000000       0.00000000
Si       0.00000000       1.56977686       2.33077605      -0.00000000       0.00000000      -0.00000000
