2
Lattice="2.6586960074637 -2.7191585185940243e-17 1.5252121449825864e-48 -1.32934800373185 2.3024982834038252 2.408396924739168e-47 -2.319246491436605e-48 -4.3626719624966587e-47 4.042828669697675" Properties=species:S:1:pos:R:3:forces:R:3 n_minim_iter=1 energy=-325.06383802305015 stress="-0.11466242698678446 2.706655151956977e-16 4.85803945626643e-16 2.706655151956977e-16 -0.11466242698677989 6.969628254619036e-15 4.85803945626643e-16 6.969628254619036e-15 -0.11613008399572236" free_energy=-325.06383802305015 pbc="T T T"
Si       0.00000000       0.00000000       0.00000000      -0.00000000      -0.00000000      -0.00000000
Si       0.00000000       1.53499886       2.02141433       0.00000000       0.00000000       0.00000000
