2
Lattice="2.5346033271012938 -2.477240600980333e-17 3.202119070640538e-48 -1.2673016635506469 2.1950308697862795 2.265547512250552e-47 -4.958753460289171e-48 -4.3374368460765807e-47 3.9250486135763305" Properties=species:S:1:pos:R:3:forces:R:3 n_minim_iter=1 energy=-324.2982289544608 stress="-0.45851218554953455 6.16447749399913e-17 -8.919426971987398e-15 6.16447749399913e-17 -0.4585121855495277 -4.693900079451295e-15 -8.919426971987398e-15 -4.693900079451295e-15 -0.4336113599519131" free_energy=-324.2982289544608 pbc="T T T"
Si       0.00000000       0.00000000       0.00000000      -0.00000000       0.00000000       0.00000000
Si       0.00000000       1.46335391       1.96252431       0.00000000      -0.00000000      -0.00000000
2
Lattice="2.5430057266080746 -3.2561543996692445e-17 -1.7793007185043262e-47 -1.2715028633040373 2.2023075612118963 -8.781797878989308e-47 8.3640600949819365e-47 -9.692946779723386e-47 3.8991537903631053" Properties=species:S:1:pos:R:3:forces:R:3 n_minim_iter=2 energy=-324.299876875465 stress="-0.44507949649740186 -3.349154267358292e-16 -1.11135361006505e-15 -3.349154267358292e-16 -0.44507949649740547 5.727244451125793e-15 -1.11135361006505e-15 5.727244451125793e-15 -0.4465208751386327" free_energy=-324.299876875465 pbc="T T T"
Si       0.00000000       0.00000000       0.00000000      -0.00000000       0.00000000       0.00000000
Si       0.00000000       1.46820504       1.94957690       0.00000000      -0.00000000      -0.00000000
