18
Lattice="0.0 -2.7180733233619225 2.7180733233619225 2.7180733233619225 -2.7180733233619225 0.0 21.855560351641063 21.855560351641063 21.855560351641063" Properties=species:S:1:pos:R:3:travel:I:3:map_shift:I:3:n_neighb:I:1:orig_index:I:1:forces:R:3 cutoff=2.0 nneightol=1.2 bulk_struct_test=bulk_Si_diamond supercell_a1_in_bulk_lattice_coords="1 -1 0" n_minim_iter=1 energy=-2934.699833948059 stress="-0.004176805807267272 -4.058578597436665e-05 -4.0585785974498395e-05 -4.058578597436665e-05 -0.004176805807267305 -4.0585785974188164e-05 -4.0585785974498395e-05 -4.0585785974188164e-05 -0.004176805807267257" free_energy=-2934.699833948059 pbc="T T T"
Si       0.00000000       0.00000000       0.00000000        0        0        0        0        0        0       21        1      -0.06858393      -0.06858393      -0.06858393
Si       1.35903666       1.35903666       1.35903666        0        0        0        0        0        0       21        2      -0.00005289      -0.00005289      -0.00005289
Si       2.71807332      -0.00000000       2.71807332        0       -1        0        0        0        0       20        3       0.00001955       0.00001955       0.00001955
Si      -1.35903666      -4.07710999      -1.35903666        0       -1        1        0        0        0       20        4       0.18660612       0.18660612       0.18660612
Si      -2.71807332       0.00000000      -2.71807332        1       -1        1        0        0        0       20        5      -0.28810861      -0.28810861      -0.28810861
Si      -1.35903666       1.35903666      -1.35903666        1       -1        1        0        0        0       20        6       0.11334920       0.11334920       0.11334920
Si       5.43614665       5.43614665       5.43614665        0        0        0        0        0        0       21        1      -0.00000000      -0.00000000      -0.00000000
Si       6.79518331       6.79518331       6.79518331        0        0        0        0        0        0       21        2       0.00000000       0.00000000       0.00000000
Si       8.15421997       5.43614665       8.15421997        0       -1        0        0        0        0       20        3       0.00000000       0.00000000       0.00000000
Si       4.07710999       1.35903666       4.07710999        0       -1        1        0        0        0       20        4      -0.00000000      -0.00000000      -0.00000000
Si       2.71807332       5.43614665       2.71807332        1       -1        1        0        0        0       20        5      -0.00000000      -0.00000000      -0.00000000
Si       4.07710999       6.79518331       4.07710999        1       -1        1        0        0        0       20        6       0.00000000       0.00000000       0.00000000
Si      10.87229329      10.87229329      10.87229329        0        0        0        0        0        0       21        1      -0.11334920      -0.11334920      -0.11334920
Si      12.23132996      12.23132996      12.23132996        0        0        0        0        0        0       21        2       0.28810861       0.28810861       0.28810861
Si      13.59036662      10.87229329      13.59036662        0       -1        0        0        0        0       20        3      -0.18660612      -0.18660612      -0.18660612
Si       9.51325663       6.79518331       9.51325663        0       -1        1        0        0        0       20        4      -0.00001955      -0.00001955      -0.00001955
Si       8.15421997      10.87229329       8.15421997        1       -1        1        0        0        0       20        5       0.00005289       0.00005289       0.00005289
Si       9.51325663      12.23132996       9.51325663        1       -1        1        0        0        0       20        6       0.06858393       0.06858393       0.06858393
18
Lattice="0.0 -2.7180733233619225 2.7180733233619225 2.7180733233619225 -2.7180733233619225 0.0 21.855560351641063 21.855560351641063 21.855560351641063" Properties=species:S:1:pos:R:3:travel:I:3:map_shift:I:3:n_neighb:I:1:orig_index:I:1:forces:R:3 cutoff=2.0 nneightol=1.2 bulk_struct_test=bulk_Si_diamond supercell_a1_in_bulk_lattice_coords="1 -1 0" n_minim_iter=2 energy=-2934.7291192790058 stress="-0.004831031664536126 0.0015826812985510405 0.0015826812985511684 0.0015826812985510405 -0.00483103166453633 0.0015826812985507961 0.0015826812985511684 0.0015826812985507961 -0.004831031664536129" free_energy=-2934.7291192790058 pbc="T T T"
Si      -0.00549750      -0.00549750      -0.00549750        0        0        0        0        0        0       21        1       0.04394232       0.04394232       0.04394232
Si       1.35903242       1.35903242       1.35903242        0        0        0        0        0        0       21        2      -0.03068298      -0.03068298      -0.03068298
Si       2.71807489       0.00000157       2.71807489        0       -1        0        0        0        0       20        3      -0.00229411      -0.00229411      -0.00229411
Si      -1.34407882      -4.06215214      -1.34407882        0       -1        1        0        0        0       20        4       0.07446623       0.07446623       0.07446623
Si      -2.74116733      -0.02309401      -2.74116733        1       -1        1        0        0        0       20        5       0.00830369       0.00830369       0.00830369
Si      -1.34995090       1.36812243      -1.34995090        1       -1        1        0        0        0       20        6      -0.15082865      -0.15082865      -0.15082865
Si       5.43614665       5.43614665       5.43614665        0        0        0        0        0        0       21        1       0.00002913       0.00002913       0.00002913
Si       6.79518331       6.79518331       6.79518331        0        0        0        0        0        0       21        2       0.00074897       0.00074897       0.00074897
Si       8.15421997       5.43614665       8.15421997        0       -1        0        0        0        0       20        3      -0.00108859      -0.00108859      -0.00108859
Si       4.07710999       1.35903666       4.07710999        0       -1        1        0        0        0       20        4       0.00108859       0.00108859       0.00108859
Si       2.71807332       5.43614665       2.71807332        1       -1        1        0        0        0       20        5      -0.00074897      -0.00074897      -0.00074897
Si       4.07710999       6.79518331       4.07710999        1       -1        1        0        0        0       20        6      -0.00002913      -0.00002913      -0.00002913
Si      10.86320753      10.86320753      10.86320753        0        0        0        0        0        0       21        1       0.15082865       0.15082865       0.15082865
Si      12.25442397      12.25442397      12.25442397        0        0        0        0        0        0       21        2      -0.00830369      -0.00830369      -0.00830369
Si      13.57540877      10.85733545      13.57540877        0       -1        0        0        0        0       20        3      -0.07446623      -0.07446623      -0.07446623
Si       9.51325506       6.79518174       9.51325506        0       -1        1        0        0        0       20        4       0.00229411       0.00229411       0.00229411
Si       8.15422421      10.87229753       8.15422421        1       -1        1        0        0        0       20        5       0.03068298       0.03068298       0.03068298
Si       9.51875414      12.23682746       9.51875414        1       -1        1        0        0        0       20        6      -0.04394232      -0.04394232      -0.04394232
18
Lattice="0.0 -2.7180733233619225 2.7180733233619225 2.7180733233619225 -2.7180733233619225 0.0 21.855560351641063 21.855560351641063 21.855560351641063" Properties=species:S:1:pos:R:3:travel:I:3:map_shift:I:3:n_neighb:I:1:orig_index:I:1:forces:R:3 cutoff=2.0 nneightol=1.2 bulk_struct_test=bulk_Si_diamond supercell_a1_in_bulk_lattice_coords="1 -1 0" n_minim_iter=3 energy=-2934.7382102931374 stress="-0.005306995963220943 0.0013819039822698847 0.0013819039822695722 0.0013819039822698847 -0.005306995963220837 0.0013819039822700599 0.0013819039822695722 0.0013819039822700599 -0.005306995963220747" free_energy=-2934.7382102931374 pbc="T T T"
Si      -0.00283969      -0.00283969      -0.00283969        0        0        0        0        0        0       21        1      -0.07451845      -0.07451845      -0.07451845
Si       1.35580904       1.35580904       1.35580904        0        0        0        0        0        0       21        2       0.02695134       0.02695134       0.02695134
Si       2.71783455      -0.00023877       2.71783455        0       -1        0        0        0        0       20        3      -0.01897127      -0.01897127      -0.01897127
Si      -1.33093650      -4.04900983      -1.33093650        0       -1        1        0        0        0       20        4       0.01116080       0.01116080       0.01116080
Si      -2.74851374      -0.03044042      -2.74851374        1       -1        1        0        0        0       20        5       0.03502206       0.03502206       0.03502206
Si      -1.36255540       1.35551793      -1.36255540        1       -1        1        0        0        0       20        6      -0.03105879      -0.03105879      -0.03105879
Si       5.43614971       5.43614971       5.43614971        0        0        0        0        0        0       21        1       0.00075049       0.00075049       0.00075049
Si       6.79526195       6.79526195       6.79526195        0        0        0        0        0        0       21        2      -0.00066258      -0.00066258      -0.00066258
Si       8.15410566       5.43603234       8.15410566        0       -1        0        0        0        0       20        3       0.00553653       0.00553653       0.00553653
Si       4.07722429       1.35915097       4.07722429        0       -1        1        0        0        0       20        4      -0.00553653      -0.00553653      -0.00553653
Si       2.71799468       5.43606800       2.71799468        1       -1        1        0        0        0       20        5       0.00066258       0.00066258       0.00066258
Si       4.07710693       6.79518025       4.07710693        1       -1        1        0        0        0       20        6      -0.00075049      -0.00075049      -0.00075049
Si      10.87581203      10.87581203      10.87581203        0        0        0        0        0        0       21        1       0.03105879       0.03105879       0.03105879
Si      12.26177038      12.26177038      12.26177038        0        0        0        0        0        0       21        2      -0.03502206      -0.03502206      -0.03502206
Si      13.56226646      10.84419314      13.56226646        0       -1        0        0        0        0       20        3      -0.01116080      -0.01116080      -0.01116080
Si       9.51349540       6.79542208       9.51349540        0       -1        1        0        0        0       20        4       0.01897127       0.01897127       0.01897127
Si       8.15744759      10.87552092       8.15744759        1       -1        1        0        0        0       20        5      -0.02695134      -0.02695134      -0.02695134
Si       9.51609633      12.23416965       9.51609633        1       -1        1        0        0        0       20        6       0.07451845       0.07451845       0.07451845
18
Lattice="0.0 -2.7180733233619225 2.7180733233619225 2.7180733233619225 -2.7180733233619225 0.0 21.855560351641063 21.855560351641063 21.855560351641063" Properties=species:S:1:pos:R:3:travel:I:3:map_shift:I:3:n_neighb:I:1:orig_index:I:1:forces:R:3 cutoff=2.0 nneightol=1.2 bulk_struct_test=bulk_Si_diamond supercell_a1_in_bulk_lattice_coords="1 -1 0" n_minim_iter=4 energy=-2934.7402087650817 stress="-0.005453290977745108 0.0016026651871057947 0.0016026651871058062 0.0016026651871057947 -0.005453290977745231 0.0016026651871055308 0.0016026651871058062 0.0016026651871055308 -0.005453290977745157" free_energy=-2934.7402087650817 pbc="T T T"
Si      -0.00838628      -0.00838628      -0.00838628        0        0        0        0        0        0       21        1      -0.01007897      -0.01007897      -0.01007897
Si       1.35728909       1.35728909       1.35728909        0        0        0        0        0        0       21        2      -0.04407201      -0.04407201      -0.04407201
Si       2.71632198      -0.00175134       2.71632198        0       -1        0        0        0        0       20        3       0.00295305       0.00295305       0.00295305
Si      -1.32684465      -4.04491798      -1.32684465        0       -1        1        0        0        0       20        4      -0.00432250      -0.00432250      -0.00432250
Si      -2.74836105      -0.03028773      -2.74836105        1       -1        1        0        0        0       20        5       0.01692402       0.01692402       0.01692402
Si      -1.36685863       1.35121469      -1.36685863        1       -1        1        0        0        0       20        6      -0.00576265      -0.00576265      -0.00576265
Si       5.43620834       5.43620834       5.43620834        0        0        0        0        0        0       21        1      -0.00093421      -0.00093421      -0.00093421
Si       6.79522545       6.79522545       6.79522545        0        0        0        0        0        0       21        2       0.00293318       0.00293318       0.00293318
Si       8.15451251       5.43643919       8.15451251        0       -1        0        0        0        0       20        3       0.00942327       0.00942327       0.00942327
Si       4.07681744       1.35874412       4.07681744        0       -1        1        0        0        0       20        4      -0.00942327      -0.00942327      -0.00942327
Si       2.71803118       5.43610450       2.71803118        1       -1        1        0        0        0       20        5      -0.00293318      -0.00293318      -0.00293318
Si       4.07704830       6.79512162       4.07704830        1       -1        1        0        0        0       20        6       0.00093421       0.00093421       0.00093421
Si      10.88011526      10.88011526      10.88011526        0        0        0        0        0        0       21        1       0.00576265       0.00576265       0.00576265
Si      12.26161768      12.26161768      12.26161768        0        0        0        0        0        0       21        2      -0.01692402      -0.01692402      -0.01692402
Si      13.55817461      10.84010128      13.55817461        0       -1        0        0        0        0       20        3       0.00432250       0.00432250       0.00432250
Si       9.51500797       6.79693465       9.51500797        0       -1        1        0        0        0       20        4      -0.00295305      -0.00295305      -0.00295305
Si       8.15596754      10.87404086       8.15596754        1       -1        1        0        0        0       20        5       0.04407201       0.04407201       0.04407201
Si       9.52164291      12.23971623       9.52164291        1       -1        1        0        0        0       20        6       0.01007897       0.01007897       0.01007897
18
Lattice="0.0 -2.7180733233619225 2.7180733233619225 2.7180733233619225 -2.7180733233619225 0.0 21.855560351641063 21.855560351641063 21.855560351641063" Properties=species:S:1:pos:R:3:travel:I:3:map_shift:I:3:n_neighb:I:1:orig_index:I:1:forces:R:3 cutoff=2.0 nneightol=1.2 bulk_struct_test=bulk_Si_diamond supercell_a1_in_bulk_lattice_coords="1 -1 0" n_minim_iter=5 energy=-2934.7411452009633 stress="-0.005512251156640167 0.0014763475432046475 0.0014763475432041698 0.0014763475432046475 -0.0055122511566399295 0.0014763475432044582 0.0014763475432041698 0.0014763475432044582 -0.005512251156640057" free_energy=-2934.7411452009633 pbc="T T T"
Si      -0.01298726      -0.01298726      -0.01298726        0        0        0        0        0        0       21        1       0.00798409       0.00798409       0.00798409
Si       1.35200009       1.35200009       1.35200009        0        0        0        0        0        0       21        2      -0.00674055      -0.00674055      -0.00674055
Si       2.71603969      -0.00203363       2.71603969        0       -1        0        0        0        0       20        3      -0.03626696      -0.03626696      -0.03626696
Si      -1.32503397      -4.04310729      -1.32503397        0       -1        1        0        0        0       20        4      -0.01014578      -0.01014578      -0.01014578
Si      -2.74740609      -0.02933277      -2.74740609        1       -1        1        0        0        0       20        5       0.00402311       0.00402311       0.00402311
Si      -1.36824405       1.34982927      -1.36824405        1       -1        1        0        0        0       20        6      -0.00894425      -0.00894425      -0.00894425
Si       5.43610507       5.43610507       5.43610507        0        0        0        0        0        0       21        1       0.00463367       0.00463367       0.00463367
Si       6.79561394       6.79561394       6.79561394        0        0        0        0        0        0       21        2       0.00684487       0.00684487       0.00684487
Si       8.15602622       5.43795289       8.15602622        0       -1        0        0        0        0       20        3      -0.00525247      -0.00525247      -0.00525247
Si       4.07530374       1.35723042       4.07530374        0       -1        1        0        0        0       20        4       0.00525247       0.00525247       0.00525247
Si       2.71764269       5.43571602       2.71764269        1       -1        1        0        0        0       20        5      -0.00684487      -0.00684487      -0.00684487
Si       4.07715156       6.79522489       4.07715156        1       -1        1        0        0        0       20        6      -0.00463367      -0.00463367      -0.00463367
Si      10.88150068      10.88150068      10.88150068        0        0        0        0        0        0       21        1       0.00894425       0.00894425       0.00894425
Si      12.26066272      12.26066272      12.26066272        0        0        0        0        0        0       21        2      -0.00402311      -0.00402311      -0.00402311
Si      13.55636393      10.83829060      13.55636393        0       -1        0        0        0        0       20        3       0.01014578       0.01014578       0.01014578
Si       9.51529026       6.79721694       9.51529026        0       -1        1        0        0        0       20        4       0.03626696       0.03626696       0.03626696
Si       8.16125654      10.87932987       8.16125654        1       -1        1        0        0        0       20        5       0.00674055       0.00674055       0.00674055
Si       9.52624389      12.24431721       9.52624389        1       -1        1        0        0        0       20        6      -0.00798409      -0.00798409      -0.00798409
18
Lattice="0.0 -2.7180733233619225 2.7180733233619225 2.7180733233619225 -2.7180733233619225 0.0 21.855560351641063 21.855560351641063 21.855560351641063" Properties=species:S:1:pos:R:3:travel:I:3:map_shift:I:3:n_neighb:I:1:orig_index:I:1:forces:R:3 cutoff=2.0 nneightol=1.2 bulk_struct_test=bulk_Si_diamond supercell_a1_in_bulk_lattice_coords="1 -1 0" n_minim_iter=6 energy=-2934.7416540614304 stress="-0.005511585742580471 0.0015768115573106705 0.001576811557310842 0.0015768115573106705 -0.005511585742580552 0.0015768115573106627 0.001576811557310842 0.0015768115573106627 -0.005511585742580596" free_energy=-2934.7416540614304 pbc="T T T"
Si      -0.01505310      -0.01505310      -0.01505310        0        0        0        0        0        0       21        1       0.00448112       0.00448112       0.00448112
Si       1.34853320       1.34853320       1.34853320        0        0        0        0        0        0       21        2       0.00297992       0.00297992       0.00297992
Si       2.71188851      -0.00618481       2.71188851        0       -1        0        0        0        0       20        3      -0.00072199      -0.00072199      -0.00072199
Si      -1.32481382      -4.04288714      -1.32481382        0       -1        1        0        0        0       20        4      -0.01185621      -0.01185621      -0.01185621
Si      -2.74738752      -0.02931420      -2.74738752        1       -1        1        0        0        0       20        5      -0.00112338      -0.00112338      -0.00112338
Si      -1.36909581       1.34897751      -1.36909581        1       -1        1        0        0        0       20        6      -0.01177102      -0.01177102      -0.01177102
Si       5.43655939       5.43655939       5.43655939        0        0        0        0        0        0       21        1       0.00194587       0.00194587       0.00194587
Si       6.79657353       6.79657353       6.79657353        0        0        0        0        0        0       21        2       0.00120482       0.00120482       0.00120482
Si       8.15627683       5.43820350       8.15627683        0       -1        0        0        0        0       20        3       0.02820899       0.02820899       0.02820899
Si       4.07505313       1.35697981       4.07505313        0       -1        1        0        0        0       20        4      -0.02820899      -0.02820899      -0.02820899
Si       2.71668310       5.43475643       2.71668310        1       -1        1        0        0        0       20        5      -0.00120482      -0.00120482      -0.00120482
Si       4.07669724       6.79477057       4.07669724        1       -1        1        0        0        0       20        6      -0.00194587      -0.00194587      -0.00194587
Si      10.88235244      10.88235244      10.88235244        0        0        0        0        0        0       21        1       0.01177102       0.01177102       0.01177102
Si      12.26064415      12.26064415      12.26064415        0        0        0        0        0        0       21        2       0.00112338       0.00112338       0.00112338
Si      13.55614377      10.83807045      13.55614377        0       -1        0        0        0        0       20        3       0.01185621       0.01185621       0.01185621
Si       9.51944144       6.80136812       9.51944144        0       -1        1        0        0        0       20        4       0.00072199       0.00072199       0.00072199
Si       8.16472344      10.88279676       8.16472344        1       -1        1        0        0        0       20        5      -0.00297992      -0.00297992      -0.00297992
Si       9.52830973      12.24638305       9.52830973        1       -1        1        0        0        0       20        6      -0.00448112      -0.00448112      -0.00448112
18
Lattice="0.0 -2.7180733233619225 2.7180733233619225 2.7180733233619225 -2.7180733233619225 0.0 21.855560351641063 21.855560351641063 21.855560351641063" Properties=species:S:1:pos:R:3:travel:I:3:map_shift:I:3:n_neighb:I:1:orig_index:I:1:forces:R:3 cutoff=2.0 nneightol=1.2 bulk_struct_test=bulk_Si_diamond supercell_a1_in_bulk_lattice_coords="1 -1 0" n_minim_iter=7 energy=-2934.742240149495 stress="-0.005421722391622859 0.0015141693203370842 0.0015141693203362687 0.0015141693203370842 -0.005421722391622717 0.0015141693203364899 0.0015141693203362687 0.0015141693203364899 -0.005421722391622786" free_energy=-2934.742240149495 pbc="T T T"
Si      -0.01715328      -0.01715328      -0.01715328        0        0        0        0        0        0       21        1      -0.00328514      -0.00328514      -0.00328514
Si       1.34541484       1.34541484       1.34541484        0        0        0        0        0        0       21        2      -0.00028685      -0.00028685      -0.00028685
Si       2.70695429      -0.01111904       2.70695429        0       -1        0        0        0        0       20        3       0.00764453       0.00764453       0.00764453
Si      -1.32638337      -4.04445670      -1.32638337        0       -1        1        0        0        0       20        4      -0.01193612      -0.01193612      -0.01193612
Si      -2.74885063      -0.03077730      -2.74885063        1       -1        1        0        0        0       20        5      -0.00510744      -0.00510744      -0.00510744
Si      -1.37117690       1.34689642      -1.37117690        1       -1        1        0        0        0       20        6      -0.00972630      -0.00972630      -0.00972630
Si       5.43746144       5.43746144       5.43746144        0        0        0        0        0        0       21        1      -0.00580821      -0.00580821      -0.00580821
Si       6.79789823       6.79789823       6.79789823        0        0        0        0        0        0       21        2       0.02347386       0.02347386       0.02347386
Si       8.16201948       5.44394616       8.16201948        0       -1        0        0        0        0       20        3      -0.00732913      -0.00732913      -0.00732913
Si       4.06931048       1.35123715       4.06931048        0       -1        1        0        0        0       20        4       0.00732913       0.00732913       0.00732913
Si       2.71535841       5.43343173       2.71535841        1       -1        1        0        0        0       20        5      -0.02347386      -0.02347386      -0.02347386
Si       4.07579520       6.79386852       4.07579520        1       -1        1        0        0        0       20        6       0.00580821       0.00580821       0.00580821
Si      10.88443353      10.88443353      10.88443353        0        0        0        0        0        0       21        1       0.00972630       0.00972630       0.00972630
Si      12.26210726      12.26210726      12.26210726        0        0        0        0        0        0       21        2       0.00510744       0.00510744       0.00510744
Si      13.55771333      10.83964001      13.55771333        0       -1        0        0        0        0       20        3       0.01193612       0.01193612       0.01193612
Si       9.52437567       6.80630235       9.52437567        0       -1        1        0        0        0       20        4      -0.00764453      -0.00764453      -0.00764453
Si       8.16784180      10.88591512       8.16784180        1       -1        1        0        0        0       20        5       0.00028685       0.00028685       0.00028685
Si       9.53040991      12.24848323       9.53040991        1       -1        1        0        0        0       20        6       0.00328514       0.00328514       0.00328514
18
Lattice="0.0 -2.7180733233619225 2.7180733233619225 2.7180733233619225 -2.7180733233619225 0.0 21.855560351641063 21.855560351641063 21.855560351641063" Properties=species:S:1:pos:R:3:travel:I:3:map_shift:I:3:n_neighb:I:1:orig_index:I:1:forces:R:3 cutoff=2.0 nneightol=1.2 bulk_struct_test=bulk_Si_diamond supercell_a1_in_bulk_lattice_coords="1 -1 0" n_minim_iter=8 energy=-2934.7425542007572 stress="-0.005319592928263982 0.0016423960191200087 0.0016423960191208633 0.0016423960191200087 -0.0053195929282640496 0.0016423960191203784 0.0016423960191208633 0.0016423960191203784 -0.005319592928264095" free_energy=-2934.7425542007572 pbc="T T T"
Si      -0.01882505      -0.01882505      -0.01882505        0        0        0        0        0        0       21        1      -0.00433933      -0.00433933      -0.00433933
Si       1.34379414       1.34379414       1.34379414        0        0        0        0        0        0       21        2      -0.00284832      -0.00284832      -0.00284832
Si       2.70511322      -0.01296010       2.70511322        0       -1        0        0        0        0       20        3       0.00487568       0.00487568       0.00487568
Si      -1.32841241      -4.04648573      -1.32841241        0       -1        1        0        0        0       20        4      -0.01098356      -0.01098356      -0.01098356
Si      -2.75053439      -0.03246106      -2.75053439        1       -1        1        0        0        0       20        5      -0.00718919      -0.00718919      -0.00718919
Si      -1.37308970       1.34498363      -1.37308970        1       -1        1        0        0        0       20        6      -0.00706202      -0.00706202      -0.00706202
Si       5.43730713       5.43730713       5.43730713        0        0        0        0        0        0       21        1       0.01952118       0.01952118       0.01952118
Si       6.80121103       6.80121103       6.80121103        0        0        0        0        0        0       21        2      -0.00962337      -0.00962337      -0.00962337
Si       8.16429409       5.44622076       8.16429409        0       -1        0        0        0        0       20        3      -0.00707144      -0.00707144      -0.00707144
Si       4.06703587       1.34896255       4.06703587        0       -1        1        0        0        0       20        4       0.00707144       0.00707144       0.00707144
Si       2.71204560       5.43011893       2.71204560        1       -1        1        0        0        0       20        5       0.00962337       0.00962337       0.00962337
Si       4.07594950       6.79402282       4.07594950        1       -1        1        0        0        0       20        6      -0.01952118      -0.01952118      -0.01952118
Si      10.88634633      10.88634633      10.88634633        0        0        0        0        0        0       21        1       0.00706202       0.00706202       0.00706202
Si      12.26379102      12.26379102      12.26379102        0        0        0        0        0        0       21        2       0.00718919       0.00718919       0.00718919