LAMMPS (27 Jun 2024 - Development - patch_17Apr2024-1524-g5a286ff933-modified)
  using 1 OpenMP thread(s) per MPI task
units metal
atom_style atomic
atom_modify map array sort 0 0
boundary p p p
box tilt large

The 'box' command has been removed and will be ignored

region cell prism    0 3.838766200697559 0 3.3244690489931594 0 6.268678969999999     -1.9193831003487798 0.0 0.0     units box
create_box 1 cell
Created triclinic box = (0 0 0) to (3.8387662 3.324469 6.268679) with tilt (-1.9193831 0 0)
WARNING: Triclinic box skew is large. LAMMPS will run inefficiently. (src/domain.cpp:221)
  1 by 1 by 1 MPI processor grid
echo none
Created 4 atoms
  using lattice units in triclinic box = (0 0 0) to (3.8387662 3.324469 6.268679) with tilt (-1.9193831 0 0)
  create_atoms CPU = 0.001 seconds
Setting atom values ...
  1 settings made for type
Setting atom values ...
  1 settings made for type
Setting atom values ...
  1 settings made for type
Setting atom values ...
  1 settings made for type
pair_style hybrid/overlay pace table spline 5000
ACE version: 2023.11.25
Recursive evaluator is used
pair_coeff * * pace /home/eng/phrffk/testing-framework/example_models/Si/models/Si_jl_ACE/0ce218cb3e.yace Si
Loading /home/eng/phrffk/testing-framework/example_models/Si/models/Si_jl_ACE/0ce218cb3e.yace
Total number of basis functions
	Si: 32 (r=1) 45284 (r>1)
Mapping LAMMPS atom type #1(Si) -> ACE species type #0
pair_coeff 1 1 table /home/eng/phrffk/testing-framework/example_models/Si/models/Si_jl_ACE/0ce218cb3e_pairpot.table Si_Si
Reading pair table potential file /home/eng/phrffk/testing-framework/example_models/Si/models/Si_jl_ACE/0ce218cb3e_pairpot.table with DATE: none
WARNING: 1 of 6000 force values in table Si_Si are inconsistent with -dE/dr.
WARNING:  Should only be flagged at inflection points (src/pair_table.cpp:473)
mass 1 28.084999992775294685998233035207
variable pxx equal pxx
variable pyy equal pyy
variable pzz equal pzz
variable pxy equal pxy
variable pxz equal pxz
variable pyz equal pyz
thermo_style custom pe pxx emol ecoul
variable fx atom fx
variable fy atom fy
variable fz atom fz
variable pe equal pe
neigh_modify delay 0 every 1 check yes
echo none
run 0
WARNING: No fixes with time integration, atoms won't move (src/verlet.cpp:60)
Neighbor list info ...
  update: every = 1 steps, delay = 0 steps, check = yes
  max neighbors/atom: 2000, page size: 100000
  master list distance cutoff = 8
  ghost atom cutoff = 8
  binsize = 4, bins = 2 1 2
  2 neighbor lists, perpetual/occasional/extra = 2 0 0
  (1) pair pace, perpetual
      attributes: full, newton on
      pair build: full/bin/atomonly
      stencil: full/bin/3d
      bin: standard
  (2) pair table, perpetual, half/full from (1)
      attributes: half, newton on
      pair build: halffull/newton/tri
      stencil: none
      bin: none
Per MPI rank memory allocation (min/avg/max) = 3.613 | 3.613 | 3.613 Mbytes
    PotEng          Pxx           E_mol          E_coul    
-652.64745      10230.77       0              0            
Loop time of 7.13e-07 on 1 procs for 0 steps with 4 atoms

140.3% CPU use with 1 MPI tasks x 1 OpenMP threads

MPI task timing breakdown:
Section |  min time  |  avg time  |  max time  |%varavg| %total
---------------------------------------------------------------
Pair    | 0          | 0          | 0          |   0.0 |  0.00
Neigh   | 0          | 0          | 0          |   0.0 |  0.00
Comm    | 0          | 0          | 0          |   0.0 |  0.00
Output  | 0          | 0          | 0          |   0.0 |  0.00
Modify  | 0          | 0          | 0          |   0.0 |  0.00
Other   |            | 7.13e-07   |            |       |100.00

Nlocal:              4 ave           4 max           4 min
Histogram: 1 0 0 0 0 0 0 0 0 0
Nghost:            500 ave         500 max         500 min
Histogram: 1 0 0 0 0 0 0 0 0 0
Neighs:            206 ave         206 max         206 min
Histogram: 1 0 0 0 0 0 0 0 0 0
FullNghs:          412 ave         412 max         412 min
Histogram: 1 0 0 0 0 0 0 0 0 0

Total # of neighbors = 412
Ave neighs/atom = 103
Neighbor list builds = 0
Dangerous builds = 0
set atom * x 0.0 y 0.0 z 0.0
Setting atom values ...
  4 settings made for x
  4 settings made for y
  4 settings made for z
change_box all     x final 0 3.8942489683669743 y final 0 3.372518535267142 z final 0 6.5245086119292415      xy final -1.9471244841834872 xz final 0.0 yz final 0.0 units box
Changing box ...
WARNING: Triclinic box skew is large. LAMMPS will run inefficiently. (src/domain.cpp:221)
  triclinic box = (0 0 0) to (3.894249 3.324469 6.268679) with tilt (-1.9193831 0 0)
WARNING: Triclinic box skew is large. LAMMPS will run inefficiently. (src/domain.cpp:221)
  triclinic box = (0 0 0) to (3.894249 3.3725185 6.268679) with tilt (-1.9193831 0 0)
WARNING: Triclinic box skew is large. LAMMPS will run inefficiently. (src/domain.cpp:221)
  triclinic box = (0 0 0) to (3.894249 3.3725185 6.5245086) with tilt (-1.9193831 0 0)
WARNING: Triclinic box skew is large. LAMMPS will run inefficiently. (src/domain.cpp:221)
  triclinic box = (0 0 0) to (3.894249 3.3725185 6.5245086) with tilt (-1.9471245 0 0)
WARNING: Triclinic box skew is large. LAMMPS will run inefficiently. (src/domain.cpp:221)
  triclinic box = (0 0 0) to (3.894249 3.3725185 6.5245086) with tilt (-1.9471245 0 0)
WARNING: Triclinic box skew is large. LAMMPS will run inefficiently. (src/domain.cpp:221)
  triclinic box = (0 0 0) to (3.894249 3.3725185 6.5245086) with tilt (-1.9471245 0 0)
echo none
run 0
WARNING: No fixes with time integration, atoms won't move (src/verlet.cpp:60)
Per MPI rank memory allocation (min/avg/max) = 3.613 | 3.613 | 3.613 Mbytes
    PotEng          Pxx           E_mol          E_coul    
-652.58977     -29568.142      0              0            
Loop time of 9.16e-07 on 1 procs for 0 steps with 4 atoms

0.0% CPU use with 1 MPI tasks x 1 OpenMP threads

MPI task timing breakdown:
Section |  min time  |  avg time  |  max time  |%varavg| %total
---------------------------------------------------------------
Pair    | 0          | 0          | 0          |   0.0 |  0.00
Neigh   | 0          | 0          | 0          |   0.0 |  0.00
Comm    | 0          | 0          | 0          |   0.0 |  0.00
Output  | 0          | 0          | 0          |   0.0 |  0.00
Modify  | 0          | 0          | 0          |   0.0 |  0.00
Other   |            | 9.16e-07   |            |       |100.00

Nlocal:              4 ave           4 max           4 min
Histogram: 1 0 0 0 0 0 0 0 0 0
Nghost:            500 ave         500 max         500 min
Histogram: 1 0 0 0 0 0 0 0 0 0
Neighs:            206 ave         206 max         206 min
Histogram: 1 0 0 0 0 0 0 0 0 0
FullNghs:          412 ave         412 max         412 min
Histogram: 1 0 0 0 0 0 0 0 0 0

Total # of neighbors = 412
Ave neighs/atom = 103
Neighbor list builds = 0
Dangerous builds = 0
set atom * x 0.0 y 0.0 z 0.0
Setting atom values ...
  4 settings made for x
  4 settings made for y
  4 settings made for z
change_box all     x final 0 3.853536379308272 y final 0 3.3372603988884704 z final 0 6.336143546425839      xy final -1.9267681896541364 xz final 0.0 yz final 0.0 units box
Changing box ...
WARNING: Triclinic box skew is large. LAMMPS will run inefficiently. (src/domain.cpp:221)
  triclinic box = (0 0 0) to (3.8535364 3.3725185 6.5245086) with tilt (-1.9471245 0 0)
WARNING: Triclinic box skew is large. LAMMPS will run inefficiently. (src/domain.cpp:221)
  triclinic box = (0 0 0) to (3.8535364 3.3372604 6.5245086) with tilt (-1.9471245 0 0)
WARNING: Triclinic box skew is large. LAMMPS will run inefficiently. (src/domain.cpp:221)
  triclinic box = (0 0 0) to (3.8535364 3.3372604 6.3361435) with tilt (-1.9471245 0 0)
WARNING: Triclinic box skew is large. LAMMPS will run inefficiently. (src/domain.cpp:221)
  triclinic box = (0 0 0) to (3.8535364 3.3372604 6.3361435) with tilt (-1.9267682 0 0)
WARNING: Triclinic box skew is large. LAMMPS will run inefficiently. (src/domain.cpp:221)
  triclinic box = (0 0 0) to (3.8535364 3.3372604 6.3361435) with tilt (-1.9267682 0 0)
WARNING: Triclinic box skew is large. LAMMPS will run inefficiently. (src/domain.cpp:221)
  triclinic box = (0 0 0) to (3.8535364 3.3372604 6.3361435) with tilt (-1.9267682 0 0)
echo none
run 0
WARNING: No fixes with time integration, atoms won't move (src/verlet.cpp:60)
Per MPI rank memory allocation (min/avg/max) = 3.613 | 3.613 | 3.613 Mbytes
    PotEng          Pxx           E_mol          E_coul    
-652.65689     -1185.6288      0              0            
Loop time of 8.25e-07 on 1 procs for 0 steps with 4 atoms

242.4% CPU use with 1 MPI tasks x 1 OpenMP threads

MPI task timing breakdown:
Section |  min time  |  avg time  |  max time  |%varavg| %total
---------------------------------------------------------------
Pair    | 0          | 0          | 0          |   0.0 |  0.00
Neigh   | 0          | 0          | 0          |   0.0 |  0.00
Comm    | 0          | 0          | 0          |   0.0 |  0.00
Output  | 0          | 0          | 0          |   0.0 |  0.00
Modify  | 0          | 0          | 0          |   0.0 |  0.00
Other   |            | 8.25e-07   |            |       |100.00

Nlocal:              4 ave           4 max           4 min
Histogram: 1 0 0 0 0 0 0 0 0 0
Nghost:            500 ave         500 max         500 min
Histogram: 1 0 0 0 0 0 0 0 0 0
Neighs:            206 ave         206 max         206 min
Histogram: 1 0 0 0 0 0 0 0 0 0
FullNghs:          412 ave         412 max         412 min
Histogram: 1 0 0 0 0 0 0 0 0 0

Total # of neighbors = 412
Ave neighs/atom = 103
Neighbor list builds = 0
Dangerous builds = 0
set atom * x 0.0 y 0.0 z 0.0
Setting atom values ...
  4 settings made for x
  4 settings made for y
  4 settings made for z
change_box all     x final 0 3.7024370566286695 y final 0 3.206404546953312 z final 0 6.56087160960232      xy final -1.8512185283143352 xz final -5.789546146128371e-49 yz final -3.9546537203978344e-48 units box
Changing box ...
WARNING: Triclinic box skew is large. LAMMPS will run inefficiently. (src/domain.cpp:221)
  triclinic box = (0 0 0) to (3.7024371 3.3372604 6.3361435) with tilt (-1.9267682 0 0)
WARNING: Triclinic box skew is large. LAMMPS will run inefficiently. (src/domain.cpp:221)
  triclinic box = (0 0 0) to (3.7024371 3.2064045 6.3361435) with tilt (-1.9267682 0 0)
WARNING: Triclinic box skew is large. LAMMPS will run inefficiently. (src/domain.cpp:221)
  triclinic box = (0 0 0) to (3.7024371 3.2064045 6.5608716) with tilt (-1.9267682 0 0)
WARNING: Triclinic box skew is large. LAMMPS will run inefficiently. (src/domain.cpp:221)
  triclinic box = (0 0 0) to (3.7024371 3.2064045 6.5608716) with tilt (-1.8512185 0 0)
WARNING: Triclinic box skew is large. LAMMPS will run inefficiently. (src/domain.cpp:221)
  triclinic box = (0 0 0) to (3.7024371 3.2064045 6.5608716) with tilt (-1.8512185 -5.7895461e-49 0)
WARNING: Triclinic box skew is large. LAMMPS will run inefficiently. (src/domain.cpp:221)
  triclinic box = (0 0 0) to (3.7024371 3.2064045 6.5608716) with tilt (-1.8512185 -5.7895461e-49 -3.9546537e-48)
echo none
run 0
WARNING: No fixes with time integration, atoms won't move (src/verlet.cpp:60)
Per MPI rank memory allocation (min/avg/max) = 3.613 | 3.613 | 3.613 Mbytes
    PotEng          Pxx           E_mol          E_coul    
-652.4467       94068.098      0              0            
Loop time of 7.32e-07 on 1 procs for 0 steps with 4 atoms

136.6% CPU use with 1 MPI tasks x 1 OpenMP threads

MPI task timing breakdown:
Section |  min time  |  avg time  |  max time  |%varavg| %total
---------------------------------------------------------------
Pair    | 0          | 0          | 0          |   0.0 |  0.00
Neigh   | 0          | 0          | 0          |   0.0 |  0.00
Comm    | 0          | 0          | 0          |   0.0 |  0.00
Output  | 0          | 0          | 0          |   0.0 |  0.00
Modify  | 0          | 0          | 0          |   0.0 |  0.00
Other   |            | 7.32e-07   |            |       |100.00

Nlocal:              4 ave           4 max           4 min
Histogram: 1 0 0 0 0 0 0 0 0 0
Nghost:            500 ave         500 max         500 min
Histogram: 1 0 0 0 0 0 0 0 0 0
Neighs:            230 ave         230 max         230 min
Histogram: 1 0 0 0 0 0 0 0 0 0
FullNghs:          460 ave         460 max         460 min
Histogram: 1 0 0 0 0 0 0 0 0 0

Total # of neighbors = 460
Ave neighs/atom = 115
Neighbor list builds = 0
Dangerous builds = 0
set atom * x 0.0 y 0.0 z 0.0
Setting atom values ...
  4 settings made for x
  4 settings made for y
  4 settings made for z
change_box all     x final 0 3.851273183413083 y final 0 3.335300413749496 z final 0 6.339387752818423      xy final -1.925636591706542 xz final -1.342302378065724e-48 yz final -7.629805250811538e-48 units box
Changing box ...
WARNING: Triclinic box skew is large. LAMMPS will run inefficiently. (src/domain.cpp:221)
  triclinic box = (0 0 0) to (3.8512732 3.2064045 6.5608716) with tilt (-1.8512185 -5.7895461e-49 -3.9546537e-48)
WARNING: Triclinic box skew is large. LAMMPS will run inefficiently. (src/domain.cpp:221)
  triclinic box = (0 0 0) to (3.8512732 3.3353004 6.5608716) with tilt (-1.8512185 -5.7895461e-49 -3.9546537e-48)
WARNING: Triclinic box skew is large. LAMMPS will run inefficiently. (src/domain.cpp:221)
  triclinic box = (0 0 0) to (3.8512732 3.3353004 6.3393878) with tilt (-1.8512185 -5.7895461e-49 -3.9546537e-48)
WARNING: Triclinic box skew is large. LAMMPS will run inefficiently. (src/domain.cpp:221)
  triclinic box = (0 0 0) to (3.8512732 3.3353004 6.3393878) with tilt (-1.9256366 -5.7895461e-49 -3.9546537e-48)
WARNING: Triclinic box skew is large. LAMMPS will run inefficiently. (src/domain.cpp:221)
  triclinic box = (0 0 0) to (3.8512732 3.3353004 6.3393878) with tilt (-1.9256366 -1.3423024e-48 -3.9546537e-48)
WARNING: Triclinic box skew is large. LAMMPS will run inefficiently. (src/domain.cpp:221)
  triclinic box = (0 0 0) to (3.8512732 3.3353004 6.3393878) with tilt (-1.9256366 -1.3423024e-48 -7.6298053e-48)
echo none
run 0
WARNING: No fixes with time integration, atoms won't move (src/verlet.cpp:60)
Per MPI rank memory allocation (min/avg/max) = 3.613 | 3.613 | 3.613 Mbytes
    PotEng          Pxx           E_mol          E_coul    
-652.65694      93.368919      0              0            
Loop time of 7.38e-07 on 1 procs for 0 steps with 4 atoms

271.0% CPU use with 1 MPI tasks x 1 OpenMP threads

MPI task timing breakdown:
Section |  min time  |  avg time  |  max time  |%varavg| %total
---------------------------------------------------------------
Pair    | 0          | 0          | 0          |   0.0 |  0.00
Neigh   | 0          | 0          | 0          |   0.0 |  0.00
Comm    | 0          | 0          | 0          |   0.0 |  0.00
Output  | 0          | 0          | 0          |   0.0 |  0.00
Modify  | 0          | 0          | 0          |   0.0 |  0.00
Other   |            | 7.38e-07   |            |       |100.00

Nlocal:              4 ave           4 max           4 min
Histogram: 1 0 0 0 0 0 0 0 0 0
Nghost:            500 ave         500 max         500 min
Histogram: 1 0 0 0 0 0 0 0 0 0
Neighs:            206 ave         206 max         206 min
Histogram: 1 0 0 0 0 0 0 0 0 0
FullNghs:          412 ave         412 max         412 min
Histogram: 1 0 0 0 0 0 0 0 0 0

Total # of neighbors = 412
Ave neighs/atom = 103
Neighbor list builds = 0
Dangerous builds = 0
set atom * x 0.0 y 0.0 z 0.0
Setting atom values ...
  4 settings made for x
  4 settings made for y
  4 settings made for z
change_box all     x final 0 3.851273183413082 y final 0 3.3353004137494953 z final 0 6.339387752818423      xy final -1.925636591706541 xz final -3.311397802602946e-48 yz final -7.56997063115803e-48 units box
Changing box ...
WARNING: Triclinic box skew is large. LAMMPS will run inefficiently. (src/domain.cpp:221)
  triclinic box = (0 0 0) to (3.8512732 3.3353004 6.3393878) with tilt (-1.9256366 -1.3423024e-48 -7.6298053e-48)
WARNING: Triclinic box skew is large. LAMMPS will run inefficiently. (src/domain.cpp:221)
  triclinic box = (0 0 0) to (3.8512732 3.3353004 6.3393878) with tilt (-1.9256366 -1.3423024e-48 -7.6298053e-48)
WARNING: Triclinic box skew is large. LAMMPS will run inefficiently. (src/domain.cpp:221)
  triclinic box = (0 0 0) to (3.8512732 3.3353004 6.3393878) with tilt (-1.9256366 -1.3423024e-48 -7.6298053e-48)
WARNING: Triclinic box skew is large. LAMMPS will run inefficiently. (src/domain.cpp:221)
  triclinic box = (0 0 0) to (3.8512732 3.3353004 6.3393878) with tilt (-1.9256366 -1.3423024e-48 -7.6298053e-48)
WARNING: Triclinic box skew is large. LAMMPS will run inefficiently. (src/domain.cpp:221)
  triclinic box = (0 0 0) to (3.8512732 3.3353004 6.3393878) with tilt (-1.9256366 -3.3113978e-48 -7.6298053e-48)
WARNING: Triclinic box skew is large. LAMMPS will run inefficiently. (src/domain.cpp:221)
  triclinic box = (0 0 0) to (3.8512732 3.3353004 6.3393878) with tilt (-1.9256366 -3.3113978e-48 -7.5699706e-48)
echo none
run 0
WARNING: No fixes with time integration, atoms won't move (src/verlet.cpp:60)
Per MPI rank memory allocation (min/avg/max) = 3.613 | 3.613 | 3.613 Mbytes
    PotEng          Pxx           E_mol          E_coul    
-652.65694      93.368919      0              0            
Loop time of 6.5e-07 on 1 procs for 0 steps with 4 atoms

153.8% CPU use with 1 MPI tasks x 1 OpenMP threads

MPI task timing breakdown:
Section |  min time  |  avg time  |  max time  |%varavg| %total
---------------------------------------------------------------
Pair    | 0          | 0          | 0          |   0.0 |  0.00
Neigh   | 0          | 0          | 0          |   0.0 |  0.00
Comm    | 0          | 0          | 0          |   0.0 |  0.00
Output  | 0          | 0          | 0          |   0.0 |  0.00
Modify  | 0          | 0          | 0          |   0.0 |  0.00
Other   |            | 6.5e-07    |            |       |100.00

Nlocal:              4 ave           4 max           4 min
Histogram: 1 0 0 0 0 0 0 0 0 0
Nghost:            500 ave         500 max         500 min
Histogram: 1 0 0 0 0 0 0 0 0 0
Neighs:            206 ave         206 max         206 min
Histogram: 1 0 0 0 0 0 0 0 0 0
FullNghs:          412 ave         412 max         412 min
Histogram: 1 0 0 0 0 0 0 0 0 0

Total # of neighbors = 412
Ave neighs/atom = 103
Neighbor list builds = 0
Dangerous builds = 0
set atom * x 0.0 y 0.0 z 0.0
Setting atom values ...
  4 settings made for x
  4 settings made for y
  4 settings made for z
change_box all     x final 0 3.8368446363906537 y final 0 3.3228049254883736 z final 0 6.394260776409253      xy final -1.9184223181953268 xz final 1.5664238326636047e-33 yz final -9.043752214534005e-34 units box
Changing box ...
WARNING: Triclinic box skew is large. LAMMPS will run inefficiently. (src/domain.cpp:221)
  triclinic box = (0 0 0) to (3.8368446 3.3353004 6.3393878) with tilt (-1.9256366 -3.3113978e-48 -7.5699706e-48)
WARNING: Triclinic box skew is large. LAMMPS will run inefficiently. (src/domain.cpp:221)
  triclinic box = (0 0 0) to (3.8368446 3.3228049 6.3393878) with tilt (-1.9256366 -3.3113978e-48 -7.5699706e-48)
WARNING: Triclinic box skew is large. LAMMPS will run inefficiently. (src/domain.cpp:221)
  triclinic box = (0 0 0) to (3.8368446 3.3228049 6.3942608) with tilt (-1.9256366 -3.3113978e-48 -7.5699706e-48)
WARNING: Triclinic box skew is large. LAMMPS will run inefficiently. (src/domain.cpp:221)
  triclinic box = (0 0 0) to (3.8368446 3.3228049 6.3942608) with tilt (-1.9184223 -3.3113978e-48 -7.5699706e-48)
WARNING: Triclinic box skew is large. LAMMPS will run inefficiently. (src/domain.cpp:221)
  triclinic box = (0 0 0) to (3.8368446 3.3228049 6.3942608) with tilt (-1.9184223 1.5664238e-33 -7.5699706e-48)
WARNING: Triclinic box skew is large. LAMMPS will run inefficiently. (src/domain.cpp:221)
  triclinic box = (0 0 0) to (3.8368446 3.3228049 6.3942608) with tilt (-1.9184223 1.5664238e-33 -9.0437522e-34)
echo none
run 0
WARNING: No fixes with time integration, atoms won't move (src/verlet.cpp:60)
Per MPI rank memory allocation (min/avg/max) = 3.613 | 3.613 | 3.613 Mbytes
    PotEng          Pxx           E_mol          E_coul    
-652.63564     -3679.6908      0              0            
Loop time of 6.3e-07 on 1 procs for 0 steps with 4 atoms

317.5% CPU use with 1 MPI tasks x 1 OpenMP threads

MPI task timing breakdown:
Section |  min time  |  avg time  |  max time  |%varavg| %total
---------------------------------------------------------------
Pair    | 0          | 0          | 0          |   0.0 |  0.00
Neigh   | 0          | 0          | 0          |   0.0 |  0.00
Comm    | 0          | 0          | 0          |   0.0 |  0.00
Output  | 0          | 0          | 0          |   0.0 |  0.00
Modify  | 0          | 0          | 0          |   0.0 |  0.00
Other   |            | 6.3e-07    |            |       |100.00

Nlocal:              4 ave           4 max           4 min
Histogram: 1 0 0 0 0 0 0 0 0 0
Nghost:            500 ave         500 max         500 min
Histogram: 1 0 0 0 0 0 0 0 0 0
Neighs:            206 ave         206 max         206 min
Histogram: 1 0 0 0 0 0 0 0 0 0
FullNghs:          412 ave         412 max         412 min
Histogram: 1 0 0 0 0 0 0 0 0 0

Total # of neighbors = 412
Ave neighs/atom = 103
Neighbor list builds = 0
Dangerous builds = 0
set atom * x 0.0 y 0.0 z 0.0
Setting atom values ...
  4 settings made for x
  4 settings made for y
  4 settings made for z
change_box all     x final 0 3.850632731557295 y final 0 3.3347457661724818 z final 0 6.341809083811464      xy final -1.9253163657786478 xz final -2.728795046394439e-17 yz final 1.5754705545991464e-17 units box
Changing box ...
WARNING: Triclinic box skew is large. LAMMPS will run inefficiently. (src/domain.cpp:221)
  triclinic box = (0 0 0) to (3.8506327 3.3228049 6.3942608) with tilt (-1.9184223 1.5664238e-33 -9.0437522e-34)
WARNING: Triclinic box skew is large. LAMMPS will run inefficiently. (src/domain.cpp:221)
  triclinic box = (0 0 0) to (3.8506327 3.3347458 6.3942608) with tilt (-1.9184223 1.5664238e-33 -9.0437522e-34)
WARNING: Triclinic box skew is large. LAMMPS will run inefficiently. (src/domain.cpp:221)
  triclinic box = (0 0 0) to (3.8506327 3.3347458 6.3418091) with tilt (-1.9184223 1.5664238e-33 -9.0437522e-34)
WARNING: Triclinic box skew is large. LAMMPS will run inefficiently. (src/domain.cpp:221)
  triclinic box = (0 0 0) to (3.8506327 3.3347458 6.3418091) with tilt (-1.9253164 1.5664238e-33 -9.0437522e-34)
WARNING: Triclinic box skew is large. LAMMPS will run inefficiently. (src/domain.cpp:221)
  triclinic box = (0 0 0) to (3.8506327 3.3347458 6.3418091) with tilt (-1.9253164 -2.728795e-17 -9.0437522e-34)
WARNING: Triclinic box skew is large. LAMMPS will run inefficiently. (src/domain.cpp:221)
  triclinic box = (0 0 0) to (3.8506327 3.3347458 6.3418091) with tilt (-1.9253164 -2.728795e-17 1.5754706e-17)
echo none
run 0
WARNING: No fixes with time integration, atoms won't move (src/verlet.cpp:60)
Per MPI rank memory allocation (min/avg/max) = 3.613 | 3.613 | 3.613 Mbytes
    PotEng          Pxx           E_mol          E_coul    
-652.65698     -75.610767      0              0            
Loop time of 6.85e-07 on 1 procs for 0 steps with 4 atoms

146.0% CPU use with 1 MPI tasks x 1 OpenMP threads

MPI task timing breakdown:
Section |  min time  |  avg time  |  max time  |%varavg| %total
---------------------------------------------------------------
Pair    | 0          | 0          | 0          |   0.0 |  0.00
Neigh   | 0          | 0          | 0          |   0.0 |  0.00
Comm    | 0          | 0          | 0          |   0.0 |  0.00
Output  | 0          | 0          | 0          |   0.0 |  0.00
Modify  | 0          | 0          | 0          |   0.0 |  0.00
Other   |            | 6.85e-07   |            |       |100.00

Nlocal:              4 ave           4 max           4 min
Histogram: 1 0 0 0 0 0 0 0 0 0
Nghost:            500 ave         500 max         500 min
Histogram: 1 0 0 0 0 0 0 0 0 0
Neighs:            206 ave         206 max         206 min
Histogram: 1 0 0 0 0 0 0 0 0 0
FullNghs:          412 ave         412 max         412 min
Histogram: 1 0 0 0 0 0 0 0 0 0

Total # of neighbors = 412
Ave neighs/atom = 103
Neighbor list builds = 0
Dangerous builds = 0
set atom * x 0.0 y 0.0 z 0.0
Setting atom values ...
  4 settings made for x
  4 settings made for y
  4 settings made for z
change_box all     x final 0 3.850632731557295 y final 0 3.3347457661724818 z final 0 6.341809083811466      xy final -1.9253163657786478 xz final -2.7287950463944415e-17 yz final 1.5754705545991476e-17 units box
Changing box ...
WARNING: Triclinic box skew is large. LAMMPS will run inefficiently. (src/domain.cpp:221)
  triclinic box = (0 0 0) to (3.8506327 3.3347458 6.3418091) with tilt (-1.9253164 -2.728795e-17 1.5754706e-17)
WARNING: Triclinic box skew is large. LAMMPS will run inefficiently. (src/domain.cpp:221)
  triclinic box = (0 0 0) to (3.8506327 3.3347458 6.3418091) with tilt (-1.9253164 -2.728795e-17 1.5754706e-17)
WARNING: Triclinic box skew is large. LAMMPS will run inefficiently. (src/domain.cpp:221)
  triclinic box = (0 0 0) to (3.8506327 3.3347458 6.3418091) with tilt (-1.9253164 -2.728795e-17 1.5754706e-17)
WARNING: Triclinic box skew is large. LAMMPS will run inefficiently. (src/domain.cpp:221)
  triclinic box = (0 0 0) to (3.8506327 3.3347458 6.3418091) with tilt (-1.9253164 -2.728795e-17 1.5754706e-17)
WARNING: Triclinic box skew is large. LAMMPS will run inefficiently. (src/domain.cpp:221)
  triclinic box = (0 0 0) to (3.8506327 3.3347458 6.3418091) with tilt (-1.9253164 -2.728795e-17 1.5754706e-17)
WARNING: Triclinic box skew is large. LAMMPS will run inefficiently. (src/domain.cpp:221)
  triclinic box = (0 0 0) to (3.8506327 3.3347458 6.3418091) with tilt (-1.9253164 -2.728795e-17 1.5754706e-17)
echo none
run 0
WARNING: No fixes with time integration, atoms won't move (src/verlet.cpp:60)
Per MPI rank memory allocation (min/avg/max) = 3.613 | 3.613 | 3.613 Mbytes
    PotEng          Pxx           E_mol          E_coul    
-652.65698     -75.610767      0              0            
Loop time of 6.59e-07 on 1 procs for 0 steps with 4 atoms

151.7% CPU use with 1 MPI tasks x 1 OpenMP threads

MPI task timing breakdown:
Section |  min time  |  avg time  |  max time  |%varavg| %total
---------------------------------------------------------------
Pair    | 0          | 0          | 0          |   0.0 |  0.00
Neigh   | 0          | 0          | 0          |   0.0 |  0.00
Comm    | 0          | 0          | 0          |   0.0 |  0.00
Output  | 0          | 0          | 0          |   0.0 |  0.00
Modify  | 0          | 0          | 0          |   0.0 |  0.00
Other   |            | 6.59e-07   |            |       |100.00

Nlocal:              4 ave           4 max           4 min
Histogram: 1 0 0 0 0 0 0 0 0 0
Nghost:            500 ave         500 max         500 min
Histogram: 1 0 0 0 0 0 0 0 0 0
Neighs:            206 ave         206 max         206 min
Histogram: 1 0 0 0 0 0 0 0 0 0
FullNghs:          412 ave         412 max         412 min
Histogram: 1 0 0 0 0 0 0 0 0 0

Total # of neighbors = 412
Ave neighs/atom = 103
Neighbor list builds = 0
Dangerous builds = 0
set atom * x 0.0 y 0.0 z 0.0
Setting atom values ...
  4 settings made for x
  4 settings made for y
  4 settings made for z
change_box all     x final 0 3.850632731557295 y final 0 3.3347457661724826 z final 0 6.341809083811466      xy final -1.9253163657786474 xz final 4.325294696060211e-33 yz final 9.918550881616688e-34 units box
Changing box ...
WARNING: Triclinic box skew is large. LAMMPS will run inefficiently. (src/domain.cpp:221)
  triclinic box = (0 0 0) to (3.8506327 3.3347458 6.3418091) with tilt (-1.9253164 -2.728795e-17 1.5754706e-17)
WARNING: Triclinic box skew is large. LAMMPS will run inefficiently. (src/domain.cpp:221)
  triclinic box = (0 0 0) to (3.8506327 3.3347458 6.3418091) with tilt (-1.9253164 -2.728795e-17 1.5754706e-17)
WARNING: Triclinic box skew is large. LAMMPS will run inefficiently. (src/domain.cpp:221)
  triclinic box = (0 0 0) to (3.8506327 3.3347458 6.3418091) with tilt (-1.9253164 -2.728795e-17 1.5754706e-17)
WARNING: Triclinic box skew is large. LAMMPS will run inefficiently. (src/domain.cpp:221)
  triclinic box = (0 0 0) to (3.8506327 3.3347458 6.3418091) with tilt (-1.9253164 -2.728795e-17 1.5754706e-17)
WARNING: Triclinic box skew is large. LAMMPS will run inefficiently. (src/domain.cpp:221)
  triclinic box = (0 0 0) to (3.8506327 3.3347458 6.3418091) with tilt (-1.9253164 4.3252947e-33 1.5754706e-17)
WARNING: Triclinic box skew is large. LAMMPS will run inefficiently. (src/domain.cpp:221)
  triclinic box = (0 0 0) to (3.8506327 3.3347458 6.3418091) with tilt (-1.9253164 4.3252947e-33 9.9185509e-34)
echo none
run 0
WARNING: No fixes with time integration, atoms won't move (src/verlet.cpp:60)
Per MPI rank memory allocation (min/avg/max) = 3.613 | 3.613 | 3.613 Mbytes
    PotEng          Pxx           E_mol          E_coul    
-652.65698     -75.610767      0              0            
Loop time of 6.76e-07 on 1 procs for 0 steps with 4 atoms

147.9% CPU use with 1 MPI tasks x 1 OpenMP threads

MPI task timing breakdown:
Section |  min time  |  avg time  |  max time  |%varavg| %total
---------------------------------------------------------------
Pair    | 0          | 0          | 0          |   0.0 |  0.00
Neigh   | 0          | 0          | 0          |   0.0 |  0.00
Comm    | 0          | 0          | 0          |   0.0 |  0.00
Output  | 0          | 0          | 0          |   0.0 |  0.00
Modify  | 0          | 0          | 0          |   0.0 |  0.00
Other   |            | 6.76e-07   |            |       |100.00

Nlocal:              4 ave           4 max           4 min
Histogram: 1 0 0 0 0 0 0 0 0 0
Nghost:            500 ave         500 max         500 min
Histogram: 1 0 0 0 0 0 0 0 0 0
Neighs:            206 ave         206 max         206 min
Histogram: 1 0 0 0 0 0 0 0 0 0
FullNghs:          412 ave         412 max         412 min
Histogram: 1 0 0 0 0 0 0 0 0 0

Total # of neighbors = 412
Ave neighs/atom = 103
Neighbor list builds = 0
Dangerous builds = 0
set atom * x 0.0 y 0.0 z 0.0
Setting atom values ...
  4 settings made for x
  4 settings made for y
  4 settings made for z
change_box all     x final 0 3.818272943394483 y final 0 3.306721367562404 z final 0 6.288514050805776      xy final -1.9091364716972414 xz final -1.1208673717726128e-33 yz final 4.505133010562881e-34 units box
Changing box ...
WARNING: Triclinic box skew is large. LAMMPS will run inefficiently. (src/domain.cpp:221)
  triclinic box = (0 0 0) to (3.8182729 3.3347458 6.3418091) with tilt (-1.9253164 4.3252947e-33 9.9185509e-34)
WARNING: Triclinic box skew is large. LAMMPS will run inefficiently. (src/domain.cpp:221)
  triclinic box = (0 0 0) to (3.8182729 3.3067214 6.3418091) with tilt (-1.9253164 4.3252947e-33 9.9185509e-34)
WARNING: Triclinic box skew is large. LAMMPS will run inefficiently. (src/domain.cpp:221)
  triclinic box = (0 0 0) to (3.8182729 3.3067214 6.2885141) with tilt (-1.9253164 4.3252947e-33 9.9185509e-34)
WARNING: Triclinic box skew is large. LAMMPS will run inefficiently. (src/domain.cpp:221)
  triclinic box = (0 0 0) to (3.8182729 3.3067214 6.2885141) with tilt (-1.9091365 4.3252947e-33 9.9185509e-34)
WARNING: Triclinic box skew is large. LAMMPS will run inefficiently. (src/domain.cpp:221)
  triclinic box = (0 0 0) to (3.8182729 3.3067214 6.2885141) with tilt (-1.9091365 -1.1208674e-33 9.9185509e-34)
WARNING: Triclinic box skew is large. LAMMPS will run inefficiently. (src/domain.cpp:221)
  triclinic box = (0 0 0) to (3.8182729 3.3067214 6.2885141) with tilt (-1.9091365 -1.1208674e-33 4.505133e-34)
echo none
run 0
WARNING: No fixes with time integration, atoms won't move (src/verlet.cpp:60)
Per MPI rank memory allocation (min/avg/max) = 3.613 | 3.613 | 3.613 Mbytes
    PotEng          Pxx           E_mol          E_coul    
-652.64262      23098.531      0              0            
Loop time of 6.65e-07 on 1 procs for 0 steps with 4 atoms

150.4% CPU use with 1 MPI tasks x 1 OpenMP threads

MPI task timing breakdown:
Section |  min time  |  avg time  |  max time  |%varavg| %total
---------------------------------------------------------------
Pair    | 0          | 0          | 0          |   0.0 |  0.00
Neigh   | 0          | 0          | 0          |   0.0 |  0.00
Comm    | 0          | 0          | 0          |   0.0 |  0.00
Output  | 0          | 0          | 0          |   0.0 |  0.00
Modify  | 0          | 0          | 0          |   0.0 |  0.00
Other   |            | 6.65e-07   |            |       |100.00

Nlocal:              4 ave           4 max           4 min
Histogram: 1 0 0 0 0 0 0 0 0 0
Nghost:            500 ave         500 max         500 min
Histogram: 1 0 0 0 0 0 0 0 0 0
Neighs:            230 ave         230 max         230 min
Histogram: 1 0 0 0 0 0 0 0 0 0
FullNghs:          460 ave         460 max         460 min
Histogram: 1 0 0 0 0 0 0 0 0 0

Total # of neighbors = 460
Ave neighs/atom = 115
Neighbor list builds = 0
Dangerous builds = 0
set atom * x 0.0 y 0.0 z 0.0
Setting atom values ...
  4 settings made for x
  4 settings made for y
  4 settings made for z
change_box all     x final 0 3.793588020450556 y final 0 3.2853435972025022 z final 0 6.3706191874242055      xy final -1.8967940102252783 xz final -5.302557462441655e-19 yz final 3.0614329783341687e-19 units box
Changing box ...
WARNING: Triclinic box skew is large. LAMMPS will run inefficiently. (src/domain.cpp:221)
  triclinic box = (0 0 0) to (3.793588 3.3067214 6.2885141) with tilt (-1.9091365 -1.1208674e-33 4.505133e-34)
WARNING: Triclinic box skew is large. LAMMPS will run inefficiently. (src/domain.cpp:221)
  triclinic box = (0 0 0) to (3.793588 3.2853436 6.2885141) with tilt (-1.9091365 -1.1208674e-33 4.505133e-34)
WARNING: Triclinic box skew is large. LAMMPS will run inefficiently. (src/domain.cpp:221)
  triclinic box = (0 0 0) to (3.793588 3.2853436 6.3706192) with tilt (-1.9091365 -1.1208674e-33 4.505133e-34)
WARNING: Triclinic box skew is large. LAMMPS will run inefficiently. (src/domain.cpp:221)
  triclinic box = (0 0 0) to (3.793588 3.2853436 6.3706192) with tilt (-1.896794 -1.1208674e-33 4.505133e-34)
WARNING: Triclinic box skew is large. LAMMPS will run inefficiently. (src/domain.cpp:221)
  triclinic box = (0 0 0) to (3.793588 3.2853436 6.3706192) with tilt (-1.896794 -5.3025575e-19 4.505133e-34)
WARNING: Triclinic box skew is large. LAMMPS will run inefficiently. (src/domain.cpp:221)
  triclinic box = (0 0 0) to (3.793588 3.2853436 6.3706192) with tilt (-1.896794 -5.3025575e-19 3.061433e-19)
echo none
run 0
WARNING: No fixes with time integration, atoms won't move (src/verlet.cpp:60)
Per MPI rank memory allocation (min/avg/max) = 3.613 | 3.613 | 3.613 Mbytes
    PotEng          Pxx           E_mol          E_coul    
-652.62816      26552.606      0              0            
Loop time of 6.58e-07 on 1 procs for 0 steps with 4 atoms

304.0% CPU use with 1 MPI tasks x 1 OpenMP threads

MPI task timing breakdown:
Section |  min time  |  avg time  |  max time  |%varavg| %total
---------------------------------------------------------------
Pair    | 0          | 0          | 0          |   0.0 |  0.00
Neigh   | 0          | 0          | 0          |   0.0 |  0.00
Comm    | 0          | 0          | 0          |   0.0 |  0.00
Output  | 0          | 0          | 0          |   0.0 |  0.00
Modify  | 0          | 0          | 0          |   0.0 |  0.00
Other   |            | 6.58e-07   |            |       |100.00

Nlocal:              4 ave           4 max           4 min
Histogram: 1 0 0 0 0 0 0 0 0 0
Nghost:            500 ave         500 max         500 min
Histogram: 1 0 0 0 0 0 0 0 0 0
Neighs:            230 ave         230 max         230 min
Histogram: 1 0 0 0 0 0 0 0 0 0
FullNghs:          460 ave         460 max         460 min
Histogram: 1 0 0 0 0 0 0 0 0 0

Total # of neighbors = 460
Ave neighs/atom = 115
Neighbor list builds = 0
Dangerous builds = 0
set atom * x 0.0 y 0.0 z 0.0
Setting atom values ...
  4 settings made for x
  4 settings made for y
  4 settings made for z
change_box all     x final 0 3.7935880204505557 y final 0 3.285343597202502 z final 0 6.370619187424204      xy final -1.896794010225278 xz final -5.302557462441853e-19 yz final 3.061432978334272e-19 units box
Changing box ...
WARNING: Triclinic box skew is large. LAMMPS will run inefficiently. (src/domain.cpp:221)
  triclinic box = (0 0 0) to (3.793588 3.2853436 6.3706192) with tilt (-1.896794 -5.3025575e-19 3.061433e-19)
WARNING: Triclinic box skew is large. LAMMPS will run inefficiently. (src/domain.cpp:221)
  triclinic box = (0 0 0) to (3.793588 3.2853436 6.3706192) with tilt (-1.896794 -5.3025575e-19 3.061433e-19)
WARNING: Triclinic box skew is large. LAMMPS will run inefficiently. (src/domain.cpp:221)
  triclinic box = (0 0 0) to (3.793588 3.2853436 6.3706192) with tilt (-1.896794 -5.3025575e-19 3.061433e-19)
WARNING: Triclinic box skew is large. LAMMPS will run inefficiently. (src/domain.cpp:221)
  triclinic box = (0 0 0) to (3.793588 3.2853436 6.3706192) with tilt (-1.896794 -5.3025575e-19 3.061433e-19)
WARNING: Triclinic box skew is large. LAMMPS will run inefficiently. (src/domain.cpp:221)
  triclinic box = (0 0 0) to (3.793588 3.2853436 6.3706192) with tilt (-1.896794 -5.3025575e-19 3.061433e-19)
WARNING: Triclinic box skew is large. LAMMPS will run inefficiently. (src/domain.cpp:221)
  triclinic box = (0 0 0) to (3.793588 3.2853436 6.3706192) with tilt (-1.896794 -5.3025575e-19 3.061433e-19)
echo none
run 0
WARNING: No fixes with time integration, atoms won't move (src/verlet.cpp:60)
Per MPI rank memory allocation (min/avg/max) = 3.613 | 3.613 | 3.613 Mbytes
    PotEng          Pxx           E_mol          E_coul    
-652.62816      26552.606      0              0            
Loop time of 6.67e-07 on 1 procs for 0 steps with 4 atoms

149.9% CPU use with 1 MPI tasks x 1 OpenMP threads

MPI task timing breakdown:
Section |  min time  |  avg time  |  max time  |%varavg| %total
---------------------------------------------------------------
Pair    | 0          | 0          | 0          |   0.0 |  0.00
Neigh   | 0          | 0          | 0          |   0.0 |  0.00
Comm    | 0          | 0          | 0          |   0.0 |  0.00
Output  | 0          | 0          | 0          |   0.0 |  0.00
Modify  | 0          | 0          | 0          |   0.0 |  0.00
Other   |            | 6.67e-07   |            |       |100.00

Nlocal:              4 ave           4 max           4 min
Histogram: 1 0 0 0 0 0 0 0 0 0
Nghost:            500 ave         500 max         500 min
Histogram: 1 0 0 0 0 0 0 0 0 0
Neighs:            230 ave         230 max         230 min
Histogram: 1 0 0 0 0 0 0 0 0 0
FullNghs:          460 ave         460 max         460 min
Histogram: 1 0 0 0 0 0 0 0 0 0

Total # of neighbors = 460
Ave neighs/atom = 115
Neighbor list builds = 0
Dangerous builds = 0
set atom * x 0.0 y 0.0 z 0.0
Setting atom values ...
  4 settings made for x
  4 settings made for y
  4 settings made for z
change_box all     x final 0 3.8169295757316646 y final 0 3.30555797703978 z final 0 6.292941312485001      xy final -1.908464787865833 xz final -2.8415936818861255e-20 yz final 1.6405948771649043e-20 units box
Changing box ...
WARNING: Triclinic box skew is large. LAMMPS will run inefficiently. (src/domain.cpp:221)
  triclinic box = (0 0 0) to (3.8169296 3.2853436 6.3706192) with tilt (-1.896794 -5.3025575e-19 3.061433e-19)
WARNING: Triclinic box skew is large. LAMMPS will run inefficiently. (src/domain.cpp:221)
  triclinic box = (0 0 0) to (3.8169296 3.305558 6.3706192) with tilt (-1.896794 -5.3025575e-19 3.061433e-19)
WARNING: Triclinic box skew is large. LAMMPS will run inefficiently. (src/domain.cpp:221)
  triclinic box = (0 0 0) to (3.8169296 3.305558 6.2929413) with tilt (-1.896794 -5.3025575e-19 3.061433e-19)
WARNING: Triclinic box skew is large. LAMMPS will run inefficiently. (src/domain.cpp:221)
  triclinic box = (0 0 0) to (3.8169296 3.305558 6.2929413) with tilt (-1.9084648 -5.3025575e-19 3.061433e-19)
WARNING: Triclinic box skew is large. LAMMPS will run inefficiently. (src/domain.cpp:221)
  triclinic box = (0 0 0) to (3.8169296 3.305558 6.2929413) with tilt (-1.9084648 -2.8415937e-20 3.061433e-19)
WARNING: Triclinic box skew is large. LAMMPS will run inefficiently. (src/domain.cpp:221)
  triclinic box = (0 0 0) to (3.8169296 3.305558 6.2929413) with tilt (-1.9084648 -2.8415937e-20 1.6405949e-20)
echo none
run 0
WARNING: No fixes with time integration, atoms won't move (src/verlet.cpp:60)
Per MPI rank memory allocation (min/avg/max) = 3.613 | 3.613 | 3.613 Mbytes
    PotEng          Pxx           E_mol          E_coul    
-652.64266      23300.847      0              0            
Loop time of 6.17e-07 on 1 procs for 0 steps with 4 atoms

162.1% CPU use with 1 MPI tasks x 1 OpenMP threads

MPI task timing breakdown:
Section |  min time  |  avg time  |  max time  |%varavg| %total
---------------------------------------------------------------
Pair    | 0          | 0          | 0          |   0.0 |  0.00
Neigh   | 0          | 0          | 0          |   0.0 |  0.00
Comm    | 0          | 0          | 0          |   0.0 |  0.00
Output  | 0          | 0          | 0          |   0.0 |  0.00
Modify  | 0          | 0          | 0          |   0.0 |  0.00
Other   |            | 6.17e-07   |            |       |100.00

Nlocal:              4 ave           4 max           4 min
Histogram: 1 0 0 0 0 0 0 0 0 0
Nghost:            500 ave         500 max         500 min
Histogram: 1 0 0 0 0 0 0 0 0 0
Neighs:            230 ave         230 max         230 min
Histogram: 1 0 0 0 0 0 0 0 0 0
FullNghs:          460 ave         460 max         460 min
Histogram: 1 0 0 0 0 0 0 0 0 0

Total # of neighbors = 460
Ave neighs/atom = 115
Neighbor list builds = 0
Dangerous builds = 0
set atom * x 0.0 y 0.0 z 0.0
Setting atom values ...
  4 settings made for x
  4 settings made for y
  4 settings made for z
change_box all     x final 0 3.784023372983132 y final 0 3.2770603695174696 z final 0 6.238689118776777      xy final -1.892011686491566 xz final 5.2992179437939646e-33 yz final -4.290866697936866e-33 units box
Changing box ...
WARNING: Triclinic box skew is large. LAMMPS will run inefficiently. (src/domain.cpp:221)
  triclinic box = (0 0 0) to (3.7840234 3.305558 6.2929413) with tilt (-1.9084648 -2.8415937e-20 1.6405949e-20)
WARNING: Triclinic box skew is large. LAMMPS will run inefficiently. (src/domain.cpp:221)
  triclinic box = (0 0 0) to (3.7840234 3.2770604 6.2929413) with tilt (-1.9084648 -2.8415937e-20 1.6405949e-20)
WARNING: Triclinic box skew is large. LAMMPS will run inefficiently. (src/domain.cpp:221)
  triclinic box = (0 0 0) to (3.7840234 3.2770604 6.2386891) with tilt (-1.9084648 -2.8415937e-20 1.6405949e-20)
WARNING: Triclinic box skew is large. LAMMPS will run inefficiently. (src/domain.cpp:221)
  triclinic box = (0 0 0) to (3.7840234 3.2770604 6.2386891) with tilt (-1.8920117 -2.8415937e-20 1.6405949e-20)
WARNING: Triclinic box skew is large. LAMMPS will run inefficiently. (src/domain.cpp:221)
  triclinic box = (0 0 0) to (3.7840234 3.2770604 6.2386891) with tilt (-1.8920117 5.2992179e-33 1.6405949e-20)
WARNING: Triclinic box skew is large. LAMMPS will run inefficiently. (src/domain.cpp:221)
  triclinic box = (0 0 0) to (3.7840234 3.2770604 6.2386891) with tilt (-1.8920117 5.2992179e-33 -4.2908667e-33)
echo none
run 0
Per MPI rank memory allocation (min/avg/max) = 3.613 | 3.613 | 3.613 Mbytes
    PotEng          Pxx           E_mol          E_coul    
WARNING: Too many warnings: 101 vs 100. All future warnings will be suppressed (src/thermo.cpp:478)
-652.59675      49361.705      0              0            
Loop time of 7.23e-07 on 1 procs for 0 steps with 4 atoms

276.6% CPU use with 1 MPI tasks x 1 OpenMP threads

MPI task timing breakdown:
Section |  min time  |  avg time  |  max time  |%varavg| %total
---------------------------------------------------------------
Pair    | 0          | 0          | 0          |   0.0 |  0.00
Neigh   | 0          | 0          | 0          |   0.0 |  0.00
Comm    | 0          | 0          | 0          |   0.0 |  0.00
Output  | 0          | 0          | 0          |   0.0 |  0.00
Modify  | 0          | 0          | 0          |   0.0 |  0.00
Other   |            | 7.23e-07   |            |       |100.00

Nlocal:              4 ave           4 max           4 min
Histogram: 1 0 0 0 0 0 0 0 0 0
Nghost:            500 ave         500 max         500 min
Histogram: 1 0 0 0 0 0 0 0 0 0
Neighs:            242 ave         242 max         242 min
Histogram: 1 0 0 0 0 0 0 0 0 0
FullNghs:          484 ave         484 max         484 min
Histogram: 1 0 0 0 0 0 0 0 0 0

Total # of neighbors = 484
Ave neighs/atom = 121
Neighbor list builds = 0
Dangerous builds = 0
set atom * x 0.0 y 0.0 z 0.0
Setting atom values ...
  4 settings made for x
  4 settings made for y
  4 settings made for z
change_box all     x final 0 3.714323711102321 y final 0 3.2166986916935016 z final 0 6.475025212932455      xy final -1.857161855551161 xz final -3.4103834119129284e-19 yz final 1.9689857809077623e-19 units box
Changing box ...
  triclinic box = (0 0 0) to (3.7143237 3.2770604 6.2386891) with tilt (-1.8920117 5.2992179e-33 -4.2908667e-33)
  triclinic box = (0 0 0) to (3.7143237 3.2166987 6.2386891) with tilt (-1.8920117 5.2992179e-33 -4.2908667e-33)
  triclinic box = (0 0 0) to (3.7143237 3.2166987 6.4750252) with tilt (-1.8920117 5.2992179e-33 -4.2908667e-33)
  triclinic box = (0 0 0) to (3.7143237 3.2166987 6.4750252) with tilt (-1.8571619 5.2992179e-33 -4.2908667e-33)
  triclinic box = (0 0 0) to (3.7143237 3.2166987 6.4750252) with tilt (-1.8571619 -3.4103834e-19 -4.2908667e-33)
  triclinic box = (0 0 0) to (3.7143237 3.2166987 6.4750252) with tilt (-1.8571619 -3.4103834e-19 1.9689858e-19)
echo none
run 0
Per MPI rank memory allocation (min/avg/max) = 3.613 | 3.613 | 3.613 Mbytes
    PotEng          Pxx           E_mol          E_coul    
-652.51857      71064.044      0              0            
Loop time of 6.97e-07 on 1 procs for 0 steps with 4 atoms

143.5% CPU use with 1 MPI tasks x 1 OpenMP threads

MPI task timing breakdown:
Section |  min time  |  avg time  |  max time  |%varavg| %total
---------------------------------------------------------------
Pair    | 0          | 0          | 0          |   0.0 |  0.00
Neigh   | 0          | 0          | 0          |   0.0 |  0.00
Comm    | 0          | 0          | 0          |   0.0 |  0.00
Output  | 0          | 0          | 0          |   0.0 |  0.00
Modify  | 0          | 0          | 0          |   0.0 |  0.00
Other   |            | 6.97e-07   |            |       |100.00

Nlocal:              4 ave           4 max           4 min
Histogram: 1 0 0 0 0 0 0 0 0 0
Nghost:            500 ave         500 max         500 min
Histogram: 1 0 0 0 0 0 0 0 0 0
Neighs:            242 ave         242 max         242 min
Histogram: 1 0 0 0 0 0 0 0 0 0
FullNghs:          484 ave         484 max         484 min
Histogram: 1 0 0 0 0 0 0 0 0 0

Total # of neighbors = 484
Ave neighs/atom = 121
Neighbor list builds = 0
Dangerous builds = 0
set atom * x 0.0 y 0.0 z 0.0
Setting atom values ...
  4 settings made for x
  4 settings made for y
  4 settings made for z
change_box all     x final 0 3.781677868786077 y final 0 3.275029103298137 z final 0 6.24643034364134      xy final -1.8908389343930385 xz final 9.443919429934711e-20 yz final -5.452449425078083e-20 units box
Changing box ...
  triclinic box = (0 0 0) to (3.7816779 3.2166987 6.4750252) with tilt (-1.8571619 -3.4103834e-19 1.9689858e-19)
  triclinic box = (0 0 0) to (3.7816779 3.2750291 6.4750252) with tilt (-1.8571619 -3.4103834e-19 1.9689858e-19)
  triclinic box = (0 0 0) to (3.7816779 3.2750291 6.2464303) with tilt (-1.8571619 -3.4103834e-19 1.9689858e-19)
  triclinic box = (0 0 0) to (3.7816779 3.2750291 6.2464303) with tilt (-1.8908389 -3.4103834e-19 1.9689858e-19)
  triclinic box = (0 0 0) to (3.7816779 3.2750291 6.2464303) with tilt (-1.8908389 9.4439194e-20 1.9689858e-19)
  triclinic box = (0 0 0) to (3.7816779 3.2750291 6.2464303) with tilt (-1.8908389 9.4439194e-20 -5.4524494e-20)
echo none
run 0
Per MPI rank memory allocation (min/avg/max) = 3.613 | 3.613 | 3.613 Mbytes
    PotEng          Pxx           E_mol          E_coul    
-652.59685      50143.771      0              0            
Loop time of 6.28e-07 on 1 procs for 0 steps with 4 atoms

159.2% CPU use with 1 MPI tasks x 1 OpenMP threads

MPI task timing breakdown:
Section |  min time  |  avg time  |  max time  |%varavg| %total
---------------------------------------------------------------
Pair    | 0          | 0          | 0          |   0.0 |  0.00
Neigh   | 0          | 0          | 0          |   0.0 |  0.00
Comm    | 0          | 0          | 0          |   0.0 |  0.00
Output  | 0          | 0          | 0          |   0.0 |  0.00
Modify  | 0          | 0          | 0          |   0.0 |  0.00
Other   |            | 6.28e-07   |            |       |100.00

Nlocal:              4 ave           4 max           4 min
Histogram: 1 0 0 0 0 0 0 0 0 0
Nghost:            500 ave         500 max         500 min
Histogram: 1 0 0 0 0 0 0 0 0 0
Neighs:            242 ave         242 max         242 min
Histogram: 1 0 0 0 0 0 0 0 0 0
FullNghs:          484 ave         484 max         484 min
Histogram: 1 0 0 0 0 0 0 0 0 0

Total # of neighbors = 484
Ave neighs/atom = 121
Neighbor list builds = 0
Dangerous builds = 0
set atom * x 0.0 y 0.0 z 0.0
Setting atom values ...
  4 settings made for x
  4 settings made for y
  4 settings made for z
change_box all     x final 0 3.79004481102894 y final 0 3.282275087832454 z final 0 6.218881417037175      xy final -1.8950224055144695 xz final 4.181178256218443e-20 yz final -2.41400439175724e-20 units box
Changing box ...
  triclinic box = (0 0 0) to (3.7900448 3.2750291 6.2464303) with tilt (-1.8908389 9.4439194e-20 -5.4524494e-20)
  triclinic box = (0 0 0) to (3.7900448 3.2822751 6.2464303) with tilt (-1.8908389 9.4439194e-20 -5.4524494e-20)
  triclinic box = (0 0 0) to (3.7900448 3.2822751 6.2188814) with tilt (-1.8908389 9.4439194e-20 -5.4524494e-20)
  triclinic box = (0 0 0) to (3.7900448 3.2822751 6.2188814) with tilt (-1.8950224 9.4439194e-20 -5.4524494e-20)
  triclinic box = (0 0 0) to (3.7900448 3.2822751 6.2188814) with tilt (-1.8950224 4.1811783e-20 -5.4524494e-20)
  triclinic box = (0 0 0) to (3.7900448 3.2822751 6.2188814) with tilt (-1.8950224 4.1811783e-20 -2.4140044e-20)
echo none
run 0
Per MPI rank memory allocation (min/avg/max) = 3.613 | 3.613 | 3.613 Mbytes
    PotEng          Pxx           E_mol          E_coul    
-652.48679      21265.783      0              0            
Loop time of 6.37e-07 on 1 procs for 0 steps with 4 atoms

314.0% CPU use with 1 MPI tasks x 1 OpenMP threads

MPI task timing breakdown:
Section |  min time  |  avg time  |  max time  |%varavg| %total
---------------------------------------------------------------
Pair    | 0          | 0          | 0          |   0.0 |  0.00
Neigh   | 0          | 0          | 0          |   0.0 |  0.00
Comm    | 0          | 0          | 0          |   0.0 |  0.00
Output  | 0          | 0          | 0          |   0.0 |  0.00
Modify  | 0          | 0          | 0          |   0.0 |  0.00
Other   |            | 6.37e-07   |            |       |100.00

Nlocal:              4 ave           4 max           4 min
Histogram: 1 0 0 0 0 0 0 0 0 0
Nghost:            500 ave         500 max         500 min
Histogram: 1 0 0 0 0 0 0 0 0 0
Neighs:            242 ave         242 max         242 min
Histogram: 1 0 0 0 0 0 0 0 0 0
FullNghs:          484 ave         484 max         484 min
Histogram: 1 0 0 0 0 0 0 0 0 0

Total # of neighbors = 484
Ave neighs/atom = 121
Neighbor list builds = 0
Dangerous builds = 0
set atom * x 0.0 y 0.0 z 0.0
Setting atom values ...
  4 settings made for x
  4 settings made for y
  4 settings made for z
change_box all     x final 0 3.781854417358807 y final 0 3.2751819988471236 z final 0 6.245847152170109      xy final -1.8909272086794036 xz final 4.8353057010600206e-20 yz final -2.7916650481209296e-20 units box
Changing box ...
  triclinic box = (0 0 0) to (3.7818544 3.2822751 6.2188814) with tilt (-1.8950224 4.1811783e-20 -2.4140044e-20)
  triclinic box = (0 0 0) to (3.7818544 3.275182 6.2188814) with tilt (-1.8950224 4.1811783e-20 -2.4140044e-20)
  triclinic box = (0 0 0) to (3.7818544 3.275182 6.2458472) with tilt (-1.8950224 4.1811783e-20 -2.4140044e-20)
  triclinic box = (0 0 0) to (3.7818544 3.275182 6.2458472) with tilt (-1.8909272 4.1811783e-20 -2.4140044e-20)
  triclinic box = (0 0 0) to (3.7818544 3.275182 6.2458472) with tilt (-1.8909272 4.8353057e-20 -2.4140044e-20)
  triclinic box = (0 0 0) to (3.7818544 3.275182 6.2458472) with tilt (-1.8909272 4.8353057e-20 -2.791665e-20)
echo none
run 0
Per MPI rank memory allocation (min/avg/max) = 3.613 | 3.613 | 3.613 Mbytes
    PotEng          Pxx           E_mol          E_coul    
-652.5969       49496.871      0              0            
Loop time of 6.62e-07 on 1 procs for 0 steps with 4 atoms

151.1% CPU use with 1 MPI tasks x 1 OpenMP threads

MPI task timing breakdown:
Section |  min time  |  avg time  |  max time  |%varavg| %total
---------------------------------------------------------------
Pair    | 0          | 0          | 0          |   0.0 |  0.00
Neigh   | 0          | 0          | 0          |   0.0 |  0.00
Comm    | 0          | 0          | 0          |   0.0 |  0.00
Output  | 0          | 0          | 0          |   0.0 |  0.00
Modify  | 0          | 0          | 0          |   0.0 |  0.00
Other   |            | 6.62e-07   |            |       |100.00

Nlocal:              4 ave           4 max           4 min
Histogram: 1 0 0 0 0 0 0 0 0 0
Nghost:            500 ave         500 max         500 min
Histogram: 1 0 0 0 0 0 0 0 0 0
Neighs:            242 ave         242 max         242 min
Histogram: 1 0 0 0 0 0 0 0 0 0
FullNghs:          484 ave         484 max         484 min
Histogram: 1 0 0 0 0 0 0 0 0 0

Total # of neighbors = 484
Ave neighs/atom = 121
Neighbor list builds = 0
Dangerous builds = 0
set atom * x 0.0 y 0.0 z 0.0
Setting atom values ...
  4 settings made for x
  4 settings made for y
  4 settings made for z
change_box all     x final 0 3.781854417358808 y final 0 3.275181998847124 z final 0 6.245847152170108      xy final -1.8909272086794036 xz final 4.835305701060451e-20 yz final -2.79166504812128e-20 units box
Changing box ...
  triclinic box = (0 0 0) to (3.7818544 3.275182 6.2458472) with tilt (-1.8909272 4.8353057e-20 -2.791665e-20)
  triclinic box = (0 0 0) to (3.7818544 3.275182 6.2458472) with tilt (-1.8909272 4.8353057e-20 -2.791665e-20)
  triclinic box = (0 0 0) to (3.7818544 3.275182 6.2458472) with tilt (-1.8909272 4.8353057e-20 -2.791665e-20)
  triclinic box = (0 0 0) to (3.7818544 3.275182 6.2458472) with tilt (-1.8909272 4.8353057e-20 -2.791665e-20)
  triclinic box = (0 0 0) to (3.7818544 3.275182 6.2458472) with tilt (-1.8909272 4.8353057e-20 -2.791665e-20)
  triclinic box = (0 0 0) to (3.7818544 3.275182 6.2458472) with tilt (-1.8909272 4.8353057e-20 -2.791665e-20)
echo none
run 0
Per MPI rank memory allocation (min/avg/max) = 3.613 | 3.613 | 3.613 Mbytes
    PotEng          Pxx           E_mol          E_coul    
-652.5969       49496.871      0              0            
Loop time of 6.46e-07 on 1 procs for 0 steps with 4 atoms

154.8% CPU use with 1 MPI tasks x 1 OpenMP threads

MPI task timing breakdown:
Section |  min time  |  avg time  |  max time  |%varavg| %total
---------------------------------------------------------------
Pair    | 0          | 0          | 0          |   0.0 |  0.00
Neigh   | 0          | 0          | 0          |   0.0 |  0.00
Comm    | 0          | 0          | 0          |   0.0 |  0.00
Output  | 0          | 0          | 0          |   0.0 |  0.00
Modify  | 0          | 0          | 0          |   0.0 |  0.00
Other   |            | 6.46e-07   |            |       |100.00

Nlocal:              4 ave           4 max           4 min
Histogram: 1 0 0 0 0 0 0 0 0 0
Nghost:            500 ave         500 max         500 min
Histogram: 1 0 0 0 0 0 0 0 0 0
Neighs:            242 ave         242 max         242 min
Histogram: 1 0 0 0 0 0 0 0 0 0
FullNghs:          484 ave         484 max         484 min
Histogram: 1 0 0 0 0 0 0 0 0 0

Total # of neighbors = 484
Ave neighs/atom = 121
Neighbor list builds = 0
Dangerous builds = 0
set atom * x 0.0 y 0.0 z 0.0
Setting atom values ...
  4 settings made for x
  4 settings made for y
  4 settings made for z
change_box all     x final 0 3.781854417358806 y final 0 3.2751819988471222 z final 0 6.245847152170108      xy final -1.890927208679403 xz final 4.835305701060451e-20 yz final -2.7916650481211595e-20 units box
Changing box ...
  triclinic box = (0 0 0) to (3.7818544 3.275182 6.2458472) with tilt (-1.8909272 4.8353057e-20 -2.791665e-20)
  triclinic box = (0 0 0) to (3.7818544 3.275182 6.2458472) with tilt (-1.8909272 4.8353057e-20 -2.791665e-20)
  triclinic box = (0 0 0) to (3.7818544 3.275182 6.2458472) with tilt (-1.8909272 4.8353057e-20 -2.791665e-20)
  triclinic box = (0 0 0) to (3.7818544 3.275182 6.2458472) with tilt (-1.8909272 4.8353057e-20 -2.791665e-20)
  triclinic box = (0 0 0) to (3.7818544 3.275182 6.2458472) with tilt (-1.8909272 4.8353057e-20 -2.791665e-20)
  triclinic box = (0 0 0) to (3.7818544 3.275182 6.2458472) with tilt (-1.8909272 4.8353057e-20 -2.791665e-20)
echo none
run 0
Per MPI rank memory allocation (min/avg/max) = 3.613 | 3.613 | 3.613 Mbytes
    PotEng          Pxx           E_mol          E_coul    
-652.5969       49496.871      0              0            
Loop time of 6.77e-07 on 1 procs for 0 steps with 4 atoms

147.7% CPU use with 1 MPI tasks x 1 OpenMP threads

MPI task timing breakdown:
Section |  min time  |  avg time  |  max time  |%varavg| %total
---------------------------------------------------------------
Pair    | 0          | 0          | 0          |   0.0 |  0.00
Neigh   | 0          | 0          | 0          |   0.0 |  0.00
Comm    | 0          | 0          | 0          |   0.0 |  0.00
Output  | 0          | 0          | 0          |   0.0 |  0.00
Modify  | 0          | 0          | 0          |   0.0 |  0.00
Other   |            | 6.77e-07   |            |       |100.00

Nlocal:              4 ave           4 max           4 min
Histogram: 1 0 0 0 0 0 0 0 0 0
Nghost:            500 ave         500 max         500 min
Histogram: 1 0 0 0 0 0 0 0 0 0
Neighs:            242 ave         242 max         242 min
Histogram: 1 0 0 0 0 0 0 0 0 0
FullNghs:          484 ave         484 max         484 min
Histogram: 1 0 0 0 0 0 0 0 0 0

Total # of neighbors = 484
Ave neighs/atom = 121
Neighbor list builds = 0
Dangerous builds = 0
set atom * x 0.0 y 0.0 z 0.0
Setting atom values ...
  4 settings made for x
  4 settings made for y
  4 settings made for z
change_box all     x final 0 3.748384923869951 y final 0 3.246196567233978 z final 0 6.190571269620951      xy final -1.8741924619349746 xz final 2.015075771862622e-33 yz final -6.52576401150848e-33 units box
Changing box ...
  triclinic box = (0 0 0) to (3.7483849 3.275182 6.2458472) with tilt (-1.8909272 4.8353057e-20 -2.791665e-20)
  triclinic box = (0 0 0) to (3.7483849 3.2461966 6.2458472) with tilt (-1.8909272 4.8353057e-20 -2.791665e-20)
  triclinic box = (0 0 0) to (3.7483849 3.2461966 6.1905713) with tilt (-1.8909272 4.8353057e-20 -2.791665e-20)
  triclinic box = (0 0 0) to (3.7483849 3.2461966 6.1905713) with tilt (-1.8741925 4.8353057e-20 -2.791665e-20)
  triclinic box = (0 0 0) to (3.7483849 3.2461966 6.1905713) with tilt (-1.8741925 2.0150758e-33 -2.791665e-20)
  triclinic box = (0 0 0) to (3.7483849 3.2461966 6.1905713) with tilt (-1.8741925 2.0150758e-33 -6.525764e-33)
echo none
run 0
Per MPI rank memory allocation (min/avg/max) = 3.613 | 3.613 | 3.613 Mbytes
    PotEng          Pxx           E_mol          E_coul    
-652.5151       79003.277      0              0            
Loop time of 7e-07 on 1 procs for 0 steps with 4 atoms

142.9% CPU use with 1 MPI tasks x 1 OpenMP threads

MPI task timing breakdown:
Section |  min time  |  avg time  |  max time  |%varavg| %total
---------------------------------------------------------------
Pair    | 0          | 0          | 0          |   0.0 |  0.00
Neigh   | 0          | 0          | 0          |   0.0 |  0.00
Comm    | 0          | 0          | 0          |   0.0 |  0.00
Output  | 0          | 0          | 0          |   0.0 |  0.00
Modify  | 0          | 0          | 0          |   0.0 |  0.00
Other   |            | 7e-07      |            |       |100.00

Nlocal:              4 ave           4 max           4 min
Histogram: 1 0 0 0 0 0 0 0 0 0
Nghost:            500 ave         500 max         500 min
Histogram: 1 0 0 0 0 0 0 0 0 0
Neighs:            242 ave         242 max         242 min
Histogram: 1 0 0 0 0 0 0 0 0 0
FullNghs:          484 ave         484 max         484 min
Histogram: 1 0 0 0 0 0 0 0 0 0

Total # of neighbors = 484
Ave neighs/atom = 121
Neighbor list builds = 0
Dangerous builds = 0
set atom * x 0.0 y 0.0 z 0.0
Setting atom values ...
  4 settings made for x
  4 settings made for y
  4 settings made for z
change_box all     x final 0 3.674161929420369 y final 0 3.181917568495688 z final 0 6.443213275827337      xy final -1.8370809647101836 xz final 2.191988381047486e-18 yz final -1.2655450818583036e-18 units box
Changing box ...
  triclinic box = (0 0 0) to (3.6741619 3.2461966 6.1905713) with tilt (-1.8741925 2.0150758e-33 -6.525764e-33)
  triclinic box = (0 0 0) to (3.6741619 3.1819176 6.1905713) with tilt (-1.8741925 2.0150758e-33 -6.525764e-33)
  triclinic box = (0 0 0) to (3.6741619 3.1819176 6.4432133) with tilt (-1.8741925 2.0150758e-33 -6.525764e-33)
  triclinic box = (0 0 0) to (3.6741619 3.1819176 6.4432133) with tilt (-1.837081 2.0150758e-33 -6.525764e-33)
  triclinic box = (0 0 0) to (3.6741619 3.1819176 6.4432133) with tilt (-1.837081 2.1919884e-18 -6.525764e-33)
  triclinic box = (0 0 0) to (3.6741619 3.1819176 6.4432133) with tilt (-1.837081 2.1919884e-18 -1.2655451e-18)
echo none
run 0
Per MPI rank memory allocation (min/avg/max) = 3.613 | 3.613 | 3.613 Mbytes
    PotEng          Pxx           E_mol          E_coul    
-652.41534      116752.04      0              0            
Loop time of 6.57e-07 on 1 procs for 0 steps with 4 atoms

304.4% CPU use with 1 MPI tasks x 1 OpenMP threads

MPI task timing breakdown:
Section |  min time  |  avg time  |  max time  |%varavg| %total
---------------------------------------------------------------
Pair    | 0          | 0          | 0          |   0.0 |  0.00
Neigh   | 0          | 0          | 0          |   0.0 |  0.00
Comm    | 0          | 0          | 0          |   0.0 |  0.00
Output  | 0          | 0          | 0          |   0.0 |  0.00
Modify  | 0          | 0          | 0          |   0.0 |  0.00
Other   |            | 6.57e-07   |            |       |100.00

Nlocal:              4 ave           4 max           4 min
Histogram: 1 0 0 0 0 0 0 0 0 0
Nghost:            500 ave         500 max         500 min
Histogram: 1 0 0 0 0 0 0 0 0 0
Neighs:            242 ave         242 max         242 min
Histogram: 1 0 0 0 0 0 0 0 0 0
FullNghs:          484 ave         484 max         484 min
Histogram: 1 0 0 0 0 0 0 0 0 0

Total # of neighbors = 484
Ave neighs/atom = 121
Neighbor list builds = 0
Dangerous builds = 0
set atom * x 0.0 y 0.0 z 0.0
Setting atom values ...
  4 settings made for x
  4 settings made for y
  4 settings made for z
change_box all     x final 0 3.7458374505692693 y final 0 3.243990390640125 z final 0 6.198994314016335      xy final -1.8729187252846335 xz final -1.4043952349886734e-18 yz final 8.108279669693346e-19 units box
Changing box ...
  triclinic box = (0 0 0) to (3.7458375 3.1819176 6.4432133) with tilt (-1.837081 2.1919884e-18 -1.2655451e-18)
  triclinic box = (0 0 0) to (3.7458375 3.2439904 6.4432133) with tilt (-1.837081 2.1919884e-18 -1.2655451e-18)
  triclinic box = (0 0 0) to (3.7458375 3.2439904 6.1989943) with tilt (-1.837081 2.1919884e-18 -1.2655451e-18)
  triclinic box = (0 0 0) to (3.7458375 3.2439904 6.1989943) with tilt (-1.8729187 2.1919884e-18 -1.2655451e-18)
  triclinic box = (0 0 0) to (3.7458375 3.2439904 6.1989943) with tilt (-1.8729187 -1.4043952e-18 -1.2655451e-18)
  triclinic box = (0 0 0) to (3.7458375 3.2439904 6.1989943) with tilt (-1.8729187 -1.4043952e-18 8.1082797e-19)
echo none
run 0
Per MPI rank memory allocation (min/avg/max) = 3.613 | 3.613 | 3.613 Mbytes
    PotEng          Pxx           E_mol          E_coul    
-652.51523      80284.309      0              0            
Loop time of 6.5e-07 on 1 procs for 0 steps with 4 atoms

153.8% CPU use with 1 MPI tasks x 1 OpenMP threads

MPI task timing breakdown:
Section |  min time  |  avg time  |  max time  |%varavg| %total
---------------------------------------------------------------
Pair    | 0          | 0          | 0          |   0.0 |  0.00
Neigh   | 0          | 0          | 0          |   0.0 |  0.00
Comm    | 0          | 0          | 0          |   0.0 |  0.00
Output  | 0          | 0          | 0          |   0.0 |  0.00
Modify  | 0          | 0          | 0          |   0.0 |  0.00
Other   |            | 6.5e-07    |            |       |100.00

Nlocal:              4 ave           4 max           4 min
Histogram: 1 0 0 0 0 0 0 0 0 0
Nghost:            500 ave         500 max         500 min
Histogram: 1 0 0 0 0 0 0 0 0 0
Neighs:            242 ave         242 max         242 min
Histogram: 1 0 0 0 0 0 0 0 0 0
FullNghs:          484 ave         484 max         484 min
Histogram: 1 0 0 0 0 0 0 0 0 0

Total # of neighbors = 484
Ave neighs/atom = 121
Neighbor list builds = 0
Dangerous builds = 0
set atom * x 0.0 y 0.0 z 0.0
Setting atom values ...
  4 settings made for x
  4 settings made for y
  4 settings made for z
change_box all     x final 0 3.7253756819933725 y final 0 3.22626997924704 z final 0 6.267277752384821      xy final -1.8626878409966852 xz final -1.1282083444648332e-18 yz final 6.513713913787473e-19 units box
Changing box ...
  triclinic box = (0 0 0) to (3.7253757 3.2439904 6.1989943) with tilt (-1.8729187 -1.4043952e-18 8.1082797e-19)
  triclinic box = (0 0 0) to (3.7253757 3.22627 6.1989943) with tilt (-1.8729187 -1.4043952e-18 8.1082797e-19)
  triclinic box = (0 0 0) to (3.7253757 3.22627 6.2672778) with tilt (-1.8729187 -1.4043952e-18 8.1082797e-19)
  triclinic box = (0 0 0) to (3.7253757 3.22627 6.2672778) with tilt (-1.8626878 -1.4043952e-18 8.1082797e-19)
  triclinic box = (0 0 0) to (3.7253757 3.22627 6.2672778) with tilt (-1.8626878 -1.1282083e-18 8.1082797e-19)
  triclinic box = (0 0 0) to (3.7253757 3.22627 6.2672778) with tilt (-1.8626878 -1.1282083e-18 6.5137139e-19)
echo none
run 0
Per MPI rank memory allocation (min/avg/max) = 3.613 | 3.613 | 3.613 Mbytes
    PotEng          Pxx           E_mol          E_coul    
-652.44796      63645.661      0              0            
Loop time of 6.78e-07 on 1 procs for 0 steps with 4 atoms

147.5% CPU use with 1 MPI tasks x 1 OpenMP threads

MPI task timing breakdown:
Section |  min time  |  avg time  |  max time  |%varavg| %total
---------------------------------------------------------------
Pair    | 0          | 0          | 0          |   0.0 |  0.00
Neigh   | 0          | 0          | 0          |   0.0 |  0.00
Comm    | 0          | 0          | 0          |   0.0 |  0.00
Output  | 0          | 0          | 0          |   0.0 |  0.00
Modify  | 0          | 0          | 0          |   0.0 |  0.00
Other   |            | 6.78e-07   |            |       |100.00

Nlocal:              4 ave           4 max           4 min
Histogram: 1 0 0 0 0 0 0 0 0 0
Nghost:            500 ave         500 max         500 min
Histogram: 1 0 0 0 0 0 0 0 0 0
Neighs:            242 ave         242 max         242 min
Histogram: 1 0 0 0 0 0 0 0 0 0
FullNghs:          484 ave         484 max         484 min
Histogram: 1 0 0 0 0 0 0 0 0 0

Total # of neighbors = 484
Ave neighs/atom = 121
Neighbor list builds = 0
Dangerous builds = 0
set atom * x 0.0 y 0.0 z 0.0
Setting atom values ...
  4 settings made for x
  4 settings made for y
  4 settings made for z
change_box all     x final 0 3.7253756819933725 y final 0 3.22626997924704 z final 0 6.267277752384823      xy final -1.8626878409966852 xz final -1.1282083444648286e-18 yz final 6.513713913787453e-19 units box
Changing box ...
  triclinic box = (0 0 0) to (3.7253757 3.22627 6.2672778) with tilt (-1.8626878 -1.1282083e-18 6.5137139e-19)
  triclinic box = (0 0 0) to (3.7253757 3.22627 6.2672778) with tilt (-1.8626878 -1.1282083e-18 6.5137139e-19)
  triclinic box = (0 0 0) to (3.7253757 3.22627 6.2672778) with tilt (-1.8626878 -1.1282083e-18 6.5137139e-19)
  triclinic box = (0 0 0) to (3.7253757 3.22627 6.2672778) with tilt (-1.8626878 -1.1282083e-18 6.5137139e-19)
  triclinic box = (0 0 0) to (3.7253757 3.22627 6.2672778) with tilt (-1.8626878 -1.1282083e-18 6.5137139e-19)
  triclinic box = (0 0 0) to (3.7253757 3.22627 6.2672778) with tilt (-1.8626878 -1.1282083e-18 6.5137139e-19)
echo none
run 0
Per MPI rank memory allocation (min/avg/max) = 3.613 | 3.613 | 3.613 Mbytes
    PotEng          Pxx           E_mol          E_coul    
-652.44796      63645.661      0              0            
Loop time of 6.2e-07 on 1 procs for 0 steps with 4 atoms

322.6% CPU use with 1 MPI tasks x 1 OpenMP threads

MPI task timing breakdown:
Section |  min time  |  avg time  |  max time  |%varavg| %total
---------------------------------------------------------------
Pair    | 0          | 0          | 0          |   0.0 |  0.00
Neigh   | 0          | 0          | 0          |   0.0 |  0.00
Comm    | 0          | 0          | 0          |   0.0 |  0.00
Output  | 0          | 0          | 0          |   0.0 |  0.00
Modify  | 0          | 0          | 0          |   0.0 |  0.00
Other   |            | 6.2e-07    |            |       |100.00

Nlocal:              4 ave           4 max           4 min
Histogram: 1 0 0 0 0 0 0 0 0 0
Nghost:            500 ave         500 max         500 min
Histogram: 1 0 0 0 0 0 0 0 0 0
Neighs:            242 ave         242 max         242 min
Histogram: 1 0 0 0 0 0 0 0 0 0
FullNghs:          484 ave         484 max         484 min
Histogram: 1 0 0 0 0 0 0 0 0 0

Total # of neighbors = 484
Ave neighs/atom = 121
Neighbor list builds = 0
Dangerous builds = 0
set atom * x 0.0 y 0.0 z 0.0
Setting atom values ...
  4 settings made for x
  4 settings made for y
  4 settings made for z
change_box all     x final 0 3.744808583450082 y final 0 3.2430993655777893 z final 0 6.20240106628848      xy final -1.8724042917250405 xz final -1.5043136181101145e-18 yz final 8.68515872361489e-19 units box
Changing box ...
  triclinic box = (0 0 0) to (3.7448086 3.22627 6.2672778) with tilt (-1.8626878 -1.1282083e-18 6.5137139e-19)
  triclinic box = (0 0 0) to (3.7448086 3.2430994 6.2672778) with tilt (-1.8626878 -1.1282083e-18 6.5137139e-19)
  triclinic box = (0 0 0) to (3.7448086 3.2430994 6.2024011) with tilt (-1.8626878 -1.1282083e-18 6.5137139e-19)
  triclinic box = (0 0 0) to (3.7448086 3.2430994 6.2024011) with tilt (-1.8724043 -1.1282083e-18 6.5137139e-19)
  triclinic box = (0 0 0) to (3.7448086 3.2430994 6.2024011) with tilt (-1.8724043 -1.5043136e-18 6.5137139e-19)
  triclinic box = (0 0 0) to (3.7448086 3.2430994 6.2024011) with tilt (-1.8724043 -1.5043136e-18 8.6851587e-19)
echo none
run 0
Per MPI rank memory allocation (min/avg/max) = 3.613 | 3.613 | 3.613 Mbytes
    PotEng          Pxx           E_mol          E_coul    
-652.51542      79462.233      0              0            
Loop time of 6.44e-07 on 1 procs for 0 steps with 4 atoms

155.3% CPU use with 1 MPI tasks x 1 OpenMP threads

MPI task timing breakdown:
Section |  min time  |  avg time  |  max time  |%varavg| %total
---------------------------------------------------------------
Pair    | 0          | 0          | 0          |   0.0 |  0.00
Neigh   | 0          | 0          | 0          |   0.0 |  0.00
Comm    | 0          | 0          | 0          |   0.0 |  0.00
Output  | 0          | 0          | 0          |   0.0 |  0.00
Modify  | 0          | 0          | 0          |   0.0 |  0.00
Other   |            | 6.44e-07   |            |       |100.00

Nlocal:              4 ave           4 max           4 min
Histogram: 1 0 0 0 0 0 0 0 0 0
Nghost:            500 ave         500 max         500 min
Histogram: 1 0 0 0 0 0 0 0 0 0
Neighs:            242 ave         242 max         242 min
Histogram: 1 0 0 0 0 0 0 0 0 0
FullNghs:          484 ave         484 max         484 min
Histogram: 1 0 0 0 0 0 0 0 0 0

Total # of neighbors = 484
Ave neighs/atom = 121
Neighbor list builds = 0
Dangerous builds = 0
set atom * x 0.0 y 0.0 z 0.0
Setting atom values ...
  4 settings made for x
  4 settings made for y
  4 settings made for z
change_box all     x final 0 3.7107629846075754 y final 0 3.2136150120931246 z final 0 6.146012480902188      xy final -1.8553814923037875 xz final -5.1916306324597105e-33 yz final 4.830897571791468e-33 units box
Changing box ...
  triclinic box = (0 0 0) to (3.710763 3.2430994 6.2024011) with tilt (-1.8724043 -1.5043136e-18 8.6851587e-19)
  triclinic box = (0 0 0) to (3.710763 3.213615 6.2024011) with tilt (-1.8724043 -1.5043136e-18 8.6851587e-19)
  triclinic box = (0 0 0) to (3.710763 3.213615 6.1460125) with tilt (-1.8724043 -1.5043136e-18 8.6851587e-19)
  triclinic box = (0 0 0) to (3.710763 3.213615 6.1460125) with tilt (-1.8553815 -1.5043136e-18 8.6851587e-19)
  triclinic box = (0 0 0) to (3.710763 3.213615 6.1460125) with tilt (-1.8553815 -5.1916306e-33 8.6851587e-19)
  triclinic box = (0 0 0) to (3.710763 3.213615 6.1460125) with tilt (-1.8553815 -5.1916306e-33 4.8308976e-33)
echo none
run 0
Per MPI rank memory allocation (min/avg/max) = 3.613 | 3.613 | 3.613 Mbytes
    PotEng          Pxx           E_mol          E_coul    
-652.39262      113169.71      0              0            
Loop time of 7.02e-07 on 1 procs for 0 steps with 4 atoms

284.9% CPU use with 1 MPI tasks x 1 OpenMP threads

MPI task timing breakdown:
Section |  min time  |  avg time  |  max time  |%varavg| %total
---------------------------------------------------------------
Pair    | 0          | 0          | 0          |   0.0 |  0.00
Neigh   | 0          | 0          | 0          |   0.0 |  0.00
Comm    | 0          | 0          | 0          |   0.0 |  0.00
Output  | 0          | 0          | 0          |   0.0 |  0.00
Modify  | 0          | 0          | 0          |   0.0 |  0.00
Other   |            | 7.02e-07   |            |       |100.00

Nlocal:              4 ave           4 max           4 min
Histogram: 1 0 0 0 0 0 0 0 0 0
Nghost:            500 ave         500 max         500 min
Histogram: 1 0 0 0 0 0 0 0 0 0
Neighs:            242 ave         242 max         242 min
Histogram: 1 0 0 0 0 0 0 0 0 0
FullNghs:          484 ave         484 max         484 min
Histogram: 1 0 0 0 0 0 0 0 0 0

Total # of neighbors = 484
Ave neighs/atom = 121
Neighbor list builds = 0
Dangerous builds = 0
set atom * x 0.0 y 0.0 z 0.0
Setting atom values ...
  4 settings made for x
  4 settings made for y
  4 settings made for z
change_box all     x final 0 3.6372849544681616 y final 0 3.149981171372354 z final 0 6.396836008443887      xy final -1.8186424772340803 xz final -3.212346663465982e-19 yz final 1.8546492108824708e-19 units box
Changing box ...
  triclinic box = (0 0 0) to (3.637285 3.213615 6.1460125) with tilt (-1.8553815 -5.1916306e-33 4.8308976e-33)
  triclinic box = (0 0 0) to (3.637285 3.1499812 6.1460125) with tilt (-1.8553815 -5.1916306e-33 4.8308976e-33)
  triclinic box = (0 0 0) to (3.637285 3.1499812 6.396836) with tilt (-1.8553815 -5.1916306e-33 4.8308976e-33)
  triclinic box = (0 0 0) to (3.637285 3.1499812 6.396836) with tilt (-1.8186425 -5.1916306e-33 4.8308976e-33)
  triclinic box = (0 0 0) to (3.637285 3.1499812 6.396836) with tilt (-1.8186425 -3.2123467e-19 4.8308976e-33)
  triclinic box = (0 0 0) to (3.637285 3.1499812 6.396836) with tilt (-1.8186425 -3.2123467e-19 1.8546492e-19)
echo none
run 0
Per MPI rank memory allocation (min/avg/max) = 3.613 | 3.613 | 3.613 Mbytes
    PotEng          Pxx           E_mol          E_coul    
-652.28729      154142.81      0              0            
Loop time of 6.78e-07 on 1 procs for 0 steps with 4 atoms

147.5% CPU use with 1 MPI tasks x 1 OpenMP threads

MPI task timing breakdown:
Section |  min time  |  avg time  |  max time  |%varavg| %total
---------------------------------------------------------------
Pair    | 0          | 0          | 0          |   0.0 |  0.00
Neigh   | 0          | 0          | 0          |   0.0 |  0.00
Comm    | 0          | 0          | 0          |   0.0 |  0.00
Output  | 0          | 0          | 0          |   0.0 |  0.00
Modify  | 0          | 0          | 0          |   0.0 |  0.00
Other   |            | 6.78e-07   |            |       |100.00

Nlocal:              4 ave           4 max           4 min
Histogram: 1 0 0 0 0 0 0 0 0 0
Nghost:            500 ave         500 max         500 min
Histogram: 1 0 0 0 0 0 0 0 0 0
Neighs:            242 ave         242 max         242 min
Histogram: 1 0 0 0 0 0 0 0 0 0
FullNghs:          484 ave         484 max         484 min
Histogram: 1 0 0 0 0 0 0 0 0 0

Total # of neighbors = 484
Ave neighs/atom = 121
Neighbor list builds = 0
Dangerous builds = 0
set atom * x 0.0 y 0.0 z 0.0
Setting atom values ...
  4 settings made for x
  4 settings made for y
  4 settings made for z
change_box all     x final 0 3.7075824482828734 y final 0 3.210860586838273 z final 0 6.156561673345801      xy final -1.8537912241414365 xz final -2.8891818027746767e-18 yz final 1.6680698915697322e-18 units box
Changing box ...
  triclinic box = (0 0 0) to (3.7075824 3.1499812 6.396836) with tilt (-1.8186425 -3.2123467e-19 1.8546492e-19)
  triclinic box = (0 0 0) to (3.7075824 3.2108606 6.396836) with tilt (-1.8186425 -3.2123467e-19 1.8546492e-19)
  triclinic box = (0 0 0) to (3.7075824 3.2108606 6.1565617) with tilt (-1.8186425 -3.2123467e-19 1.8546492e-19)
  triclinic box = (0 0 0) to (3.7075824 3.2108606 6.1565617) with tilt (-1.8537912 -3.2123467e-19 1.8546492e-19)
  triclinic box = (0 0 0) to (3.7075824 3.2108606 6.1565617) with tilt (-1.8537912 -2.8891818e-18 1.8546492e-19)
  triclinic box = (0 0 0) to (3.7075824 3.2108606 6.1565617) with tilt (-1.8537912 -2.8891818e-18 1.6680699e-18)
echo none
run 0
Per MPI rank memory allocation (min/avg/max) = 3.613 | 3.613 | 3.613 Mbytes
    PotEng          Pxx           E_mol          E_coul    
-652.39285      114907.47      0              0            
Loop time of 6.66e-07 on 1 procs for 0 steps with 4 atoms

150.2% CPU use with 1 MPI tasks x 1 OpenMP threads

MPI task timing breakdown:
Section |  min time  |  avg time  |  max time  |%varavg| %total
---------------------------------------------------------------
Pair    | 0          | 0          | 0          |   0.0 |  0.00
Neigh   | 0          | 0          | 0          |   0.0 |  0.00
Comm    | 0          | 0          | 0          |   0.0 |  0.00
Output  | 0          | 0          | 0          |   0.0 |  0.00
Modify  | 0          | 0          | 0          |   0.0 |  0.00
Other   |            | 6.66e-07   |            |       |100.00

Nlocal:              4 ave           4 max           4 min
Histogram: 1 0 0 0 0 0 0 0 0 0
Nghost:            500 ave         500 max         500 min
Histogram: 1 0 0 0 0 0 0 0 0 0
Neighs:            242 ave         242 max         242 min
Histogram: 1 0 0 0 0 0 0 0 0 0
[...]
    PotEng          Pxx           E_mol          E_coul    
-652.59386      27375.621      0              0            
Loop time of 6.37e-07 on 1 procs for 0 steps with 4 atoms

314.0% CPU use with 1 MPI tasks x 1 OpenMP threads

MPI task timing breakdown:
Section |  min time  |  avg time  |  max time  |%varavg| %total
---------------------------------------------------------------
Pair    | 0          | 0          | 0          |   0.0 |  0.00
Neigh   | 0          | 0          | 0          |   0.0 |  0.00
Comm    | 0          | 0          | 0          |   0.0 |  0.00
Output  | 0          | 0          | 0          |   0.0 |  0.00
Modify  | 0          | 0          | 0          |   0.0 |  0.00
Other   |            | 6.37e-07   |            |       |100.00

Nlocal:              4 ave           4 max           4 min
Histogram: 1 0 0 0 0 0 0 0 0 0
Nghost:            500 ave         500 max         500 min
Histogram: 1 0 0 0 0 0 0 0 0 0
Neighs:            210 ave         210 max         210 min
Histogram: 1 0 0 0 0 0 0 0 0 0
FullNghs:          420 ave         420 max         420 min
Histogram: 1 0 0 0 0 0 0 0 0 0

Total # of neighbors = 420
Ave neighs/atom = 105
Neighbor list builds = 0
Dangerous builds = 0
set atom * x 0.0 y 0.0 z 0.0
Setting atom values ...
  4 settings made for x
  4 settings made for y
  4 settings made for z
change_box all     x final 0 3.8673184417161317 y final 0 3.3202748545624994 z final 0 6.2783909929733515      xy final -1.91705743154052 xz final -2.6980709021138576e-17 yz final 1.5664119621457797e-17 units box
Changing box ...
  triclinic box = (0 0 0) to (3.8673184 3.3202749 6.278391) with tilt (-1.9170574 -2.6980709e-17 1.566412e-17)
  triclinic box = (0 0 0) to (3.8673184 3.3202749 6.278391) with tilt (-1.9170574 -2.6980709e-17 1.566412e-17)
  triclinic box = (0 0 0) to (3.8673184 3.3202749 6.278391) with tilt (-1.9170574 -2.6980709e-17 1.566412e-17)
  triclinic box = (0 0 0) to (3.8673184 3.3202749 6.278391) with tilt (-1.9170574 -2.6980709e-17 1.566412e-17)
  triclinic box = (0 0 0) to (3.8673184 3.3202749 6.278391) with tilt (-1.9170574 -2.6980709e-17 1.566412e-17)
  triclinic box = (0 0 0) to (3.8673184 3.3202749 6.278391) with tilt (-1.9170574 -2.6980709e-17 1.566412e-17)
echo none
run 0
Per MPI rank memory allocation (min/avg/max) = 3.625 | 3.625 | 3.625 Mbytes
    PotEng          Pxx           E_mol          E_coul    
-652.65049     -1194.4939      0              0            
Loop time of 6.41e-07 on 1 procs for 0 steps with 4 atoms

156.0% CPU use with 1 MPI tasks x 1 OpenMP threads

MPI task timing breakdown:
Section |  min time  |  avg time  |  max time  |%varavg| %total
---------------------------------------------------------------
Pair    | 0          | 0          | 0          |   0.0 |  0.00
Neigh   | 0          | 0          | 0          |   0.0 |  0.00
Comm    | 0          | 0          | 0          |   0.0 |  0.00
Output  | 0          | 0          | 0          |   0.0 |  0.00
Modify  | 0          | 0          | 0          |   0.0 |  0.00
Other   |            | 6.41e-07   |            |       |100.00

Nlocal:              4 ave           4 max           4 min
Histogram: 1 0 0 0 0 0 0 0 0 0
Nghost:            500 ave         500 max         500 min
Histogram: 1 0 0 0 0 0 0 0 0 0
Neighs:            206 ave         206 max         206 min
Histogram: 1 0 0 0 0 0 0 0 0 0
FullNghs:          412 ave         412 max         412 min
Histogram: 1 0 0 0 0 0 0 0 0 0

Total # of neighbors = 412
Ave neighs/atom = 103
Neighbor list builds = 0
Dangerous builds = 0
set atom * x 0.0 y 0.0 z 0.0
Setting atom values ...
  4 settings made for x
  4 settings made for y
  4 settings made for z
change_box all     x final 0 3.850632731557295 y final 0 3.3347457661724818 z final 0 6.341809083811466      xy final -1.9253163657786478 xz final -2.7287950463944415e-17 yz final 1.5754705545991476e-17 units box
Changing box ...
  triclinic box = (0 0 0) to (3.8506327 3.3202749 6.278391) with tilt (-1.9170574 -2.6980709e-17 1.566412e-17)
  triclinic box = (0 0 0) to (3.8506327 3.3347458 6.278391) with tilt (-1.9170574 -2.6980709e-17 1.566412e-17)
  triclinic box = (0 0 0) to (3.8506327 3.3347458 6.3418091) with tilt (-1.9170574 -2.6980709e-17 1.566412e-17)
  triclinic box = (0 0 0) to (3.8506327 3.3347458 6.3418091) with tilt (-1.9253164 -2.6980709e-17 1.566412e-17)
  triclinic box = (0 0 0) to (3.8506327 3.3347458 6.3418091) with tilt (-1.9253164 -2.728795e-17 1.566412e-17)
  triclinic box = (0 0 0) to (3.8506327 3.3347458 6.3418091) with tilt (-1.9253164 -2.728795e-17 1.5754706e-17)
echo none
run 0
Per MPI rank memory allocation (min/avg/max) = 3.625 | 3.625 | 3.625 Mbytes
    PotEng          Pxx           E_mol          E_coul    
-652.65698     -75.610767      0              0            
Loop time of 6.05e-07 on 1 procs for 0 steps with 4 atoms

165.3% CPU use with 1 MPI tasks x 1 OpenMP threads

MPI task timing breakdown:
Section |  min time  |  avg time  |  max time  |%varavg| %total
---------------------------------------------------------------
Pair    | 0          | 0          | 0          |   0.0 |  0.00
Neigh   | 0          | 0          | 0          |   0.0 |  0.00
Comm    | 0          | 0          | 0          |   0.0 |  0.00
Output  | 0          | 0          | 0          |   0.0 |  0.00
Modify  | 0          | 0          | 0          |   0.0 |  0.00
Other   |            | 6.05e-07   |            |       |100.00

Nlocal:              4 ave           4 max           4 min
Histogram: 1 0 0 0 0 0 0 0 0 0
Nghost:            500 ave         500 max         500 min
Histogram: 1 0 0 0 0 0 0 0 0 0
Neighs:            206 ave         206 max         206 min
Histogram: 1 0 0 0 0 0 0 0 0 0
FullNghs:          412 ave         412 max         412 min
Histogram: 1 0 0 0 0 0 0 0 0 0

Total # of neighbors = 412
Ave neighs/atom = 103
Neighbor list builds = 0
Dangerous builds = 0
set atom * x 0.0 y 0.0 z 0.0
Setting atom values ...
  4 settings made for x
  4 settings made for y
  4 settings made for z
change_box all     x final 0 3.8339710882666767 y final 0 3.349154148791735 z final 0 6.40522717464958      xy final -1.9337317335320325 xz final -2.76011066222147e-17 yz final 1.5842493063430907e-17 units box
Changing box ...
  triclinic box = (0 0 0) to (3.8339711 3.3347458 6.3418091) with tilt (-1.9253164 -2.728795e-17 1.5754706e-17)
  triclinic box = (0 0 0) to (3.8339711 3.3491541 6.3418091) with tilt (-1.9253164 -2.728795e-17 1.5754706e-17)
  triclinic box = (0 0 0) to (3.8339711 3.3491541 6.4052272) with tilt (-1.9253164 -2.728795e-17 1.5754706e-17)
  triclinic box = (0 0 0) to (3.8339711 3.3491541 6.4052272) with tilt (-1.9337317 -2.728795e-17 1.5754706e-17)
  triclinic box = (0 0 0) to (3.8339711 3.3491541 6.4052272) with tilt (-1.9337317 -2.7601107e-17 1.5754706e-17)
  triclinic box = (0 0 0) to (3.8339711 3.3491541 6.4052272) with tilt (-1.9337317 -2.7601107e-17 1.5842493e-17)
echo none
run 0
Per MPI rank memory allocation (min/avg/max) = 3.625 | 3.625 | 3.625 Mbytes
    PotEng          Pxx           E_mol          E_coul    
-652.64927      5243.4897      0              0            
Loop time of 5.8e-07 on 1 procs for 0 steps with 4 atoms

172.4% CPU use with 1 MPI tasks x 1 OpenMP threads

MPI task timing breakdown:
Section |  min time  |  avg time  |  max time  |%varavg| %total
---------------------------------------------------------------
Pair    | 0          | 0          | 0          |   0.0 |  0.00
Neigh   | 0          | 0          | 0          |   0.0 |  0.00
Comm    | 0          | 0          | 0          |   0.0 |  0.00
Output  | 0          | 0          | 0          |   0.0 |  0.00
Modify  | 0          | 0          | 0          |   0.0 |  0.00
Other   |            | 5.8e-07    |            |       |100.00

Nlocal:              4 ave           4 max           4 min
Histogram: 1 0 0 0 0 0 0 0 0 0
Nghost:            500 ave         500 max         500 min
Histogram: 1 0 0 0 0 0 0 0 0 0
Neighs:            206 ave         206 max         206 min
Histogram: 1 0 0 0 0 0 0 0 0 0
FullNghs:          412 ave         412 max         412 min
Histogram: 1 0 0 0 0 0 0 0 0 0

Total # of neighbors = 412
Ave neighs/atom = 103
Neighbor list builds = 0
Dangerous builds = 0
set atom * x 0.0 y 0.0 z 0.0
Setting atom values ...
  4 settings made for x
  4 settings made for y
  4 settings made for z
change_box all     x final 0 3.8339710882666767 y final 0 3.349154148791735 z final 0 6.40522717464958      xy final -1.9337317335320325 xz final -2.76011066222147e-17 yz final 1.5842493063430907e-17 units box
Changing box ...
  triclinic box = (0 0 0) to (3.8339711 3.3491541 6.4052272) with tilt (-1.9337317 -2.7601107e-17 1.5842493e-17)
  triclinic box = (0 0 0) to (3.8339711 3.3491541 6.4052272) with tilt (-1.9337317 -2.7601107e-17 1.5842493e-17)
  triclinic box = (0 0 0) to (3.8339711 3.3491541 6.4052272) with tilt (-1.9337317 -2.7601107e-17 1.5842493e-17)
  triclinic box = (0 0 0) to (3.8339711 3.3491541 6.4052272) with tilt (-1.9337317 -2.7601107e-17 1.5842493e-17)
  triclinic box = (0 0 0) to (3.8339711 3.3491541 6.4052272) with tilt (-1.9337317 -2.7601107e-17 1.5842493e-17)
  triclinic box = (0 0 0) to (3.8339711 3.3491541 6.4052272) with tilt (-1.9337317 -2.7601107e-17 1.5842493e-17)
echo none
run 0
Per MPI rank memory allocation (min/avg/max) = 3.625 | 3.625 | 3.625 Mbytes
    PotEng          Pxx           E_mol          E_coul    
-652.59519     -19389.365      0              0            
Loop time of 5.95e-07 on 1 procs for 0 steps with 4 atoms

168.1% CPU use with 1 MPI tasks x 1 OpenMP threads

MPI task timing breakdown:
Section |  min time  |  avg time  |  max time  |%varavg| %total
---------------------------------------------------------------
Pair    | 0          | 0          | 0          |   0.0 |  0.00
Neigh   | 0          | 0          | 0          |   0.0 |  0.00
Comm    | 0          | 0          | 0          |   0.0 |  0.00
Output  | 0          | 0          | 0          |   0.0 |  0.00
Modify  | 0          | 0          | 0          |   0.0 |  0.00
Other   |            | 5.95e-07   |            |       |100.00

Nlocal:              4 ave           4 max           4 min
Histogram: 1 0 0 0 0 0 0 0 0 0
Nghost:            500 ave         500 max         500 min
Histogram: 1 0 0 0 0 0 0 0 0 0
Neighs:            210 ave         210 max         210 min
Histogram: 1 0 0 0 0 0 0 0 0 0
FullNghs:          420 ave         420 max         420 min
Histogram: 1 0 0 0 0 0 0 0 0 0

Total # of neighbors = 420
Ave neighs/atom = 105
Neighbor list builds = 0
Dangerous builds = 0
set atom * x 0.0 y 0.0 z 0.0
Setting atom values ...
  4 settings made for x
  4 settings made for y
  4 settings made for z
change_box all     x final 0 3.8339710882666767 y final 0 3.349154148791735 z final 0 6.40522717464958      xy final -1.9337317335320325 xz final -2.76011066222147e-17 yz final 1.5842493063430907e-17 units box
Changing box ...
  triclinic box = (0 0 0) to (3.8339711 3.3491541 6.4052272) with tilt (-1.9337317 -2.7601107e-17 1.5842493e-17)
  triclinic box = (0 0 0) to (3.8339711 3.3491541 6.4052272) with tilt (-1.9337317 -2.7601107e-17 1.5842493e-17)
  triclinic box = (0 0 0) to (3.8339711 3.3491541 6.4052272) with tilt (-1.9337317 -2.7601107e-17 1.5842493e-17)
  triclinic box = (0 0 0) to (3.8339711 3.3491541 6.4052272) with tilt (-1.9337317 -2.7601107e-17 1.5842493e-17)
  triclinic box = (0 0 0) to (3.8339711 3.3491541 6.4052272) with tilt (-1.9337317 -2.7601107e-17 1.5842493e-17)
  triclinic box = (0 0 0) to (3.8339711 3.3491541 6.4052272) with tilt (-1.9337317 -2.7601107e-17 1.5842493e-17)
echo none
run 0
Per MPI rank memory allocation (min/avg/max) = 3.625 | 3.625 | 3.625 Mbytes
    PotEng          Pxx           E_mol          E_coul    
-652.65061      1485.0016      0              0            
Loop time of 6.59e-07 on 1 procs for 0 steps with 4 atoms

303.5% CPU use with 1 MPI tasks x 1 OpenMP threads

MPI task timing breakdown:
Section |  min time  |  avg time  |  max time  |%varavg| %total
---------------------------------------------------------------
Pair    | 0          | 0          | 0          |   0.0 |  0.00
Neigh   | 0          | 0          | 0          |   0.0 |  0.00
Comm    | 0          | 0          | 0          |   0.0 |  0.00
Output  | 0          | 0          | 0          |   0.0 |  0.00
Modify  | 0          | 0          | 0          |   0.0 |  0.00
Other   |            | 6.59e-07   |            |       |100.00

Nlocal:              4 ave           4 max           4 min
Histogram: 1 0 0 0 0 0 0 0 0 0
Nghost:            500 ave         500 max         500 min
Histogram: 1 0 0 0 0 0 0 0 0 0
Neighs:            206 ave         206 max         206 min
Histogram: 1 0 0 0 0 0 0 0 0 0
FullNghs:          412 ave         412 max         412 min
Histogram: 1 0 0 0 0 0 0 0 0 0

Total # of neighbors = 412
Ave neighs/atom = 103
Neighbor list builds = 0
Dangerous builds = 0
set atom * x 0.0 y 0.0 z 0.0
Setting atom values ...
  4 settings made for x
  4 settings made for y
  4 settings made for z
change_box all     x final 0 3.8173338269806596 y final 0 3.363498633464171 z final 0 6.468645265487695      xy final -1.942305263659989 xz final -2.7920246716489727e-17 yz final 1.59273871025398e-17 units box
Changing box ...
  triclinic box = (0 0 0) to (3.8173338 3.3491541 6.4052272) with tilt (-1.9337317 -2.7601107e-17 1.5842493e-17)
  triclinic box = (0 0 0) to (3.8173338 3.3634986 6.4052272) with tilt (-1.9337317 -2.7601107e-17 1.5842493e-17)
  triclinic box = (0 0 0) to (3.8173338 3.3634986 6.4686453) with tilt (-1.9337317 -2.7601107e-17 1.5842493e-17)
  triclinic box = (0 0 0) to (3.8173338 3.3634986 6.4686453) with tilt (-1.9423053 -2.7601107e-17 1.5842493e-17)
  triclinic box = (0 0 0) to (3.8173338 3.3634986 6.4686453) with tilt (-1.9423053 -2.7920247e-17 1.5842493e-17)
  triclinic box = (0 0 0) to (3.8173338 3.3634986 6.4686453) with tilt (-1.9423053 -2.7920247e-17 1.5927387e-17)
echo none
run 0
Per MPI rank memory allocation (min/avg/max) = 3.625 | 3.625 | 3.625 Mbytes
    PotEng          Pxx           E_mol          E_coul    
-652.62691      10567.761      0              0            
Loop time of 6.31e-07 on 1 procs for 0 steps with 4 atoms

317.0% CPU use with 1 MPI tasks x 1 OpenMP threads

MPI task timing breakdown:
Section |  min time  |  avg time  |  max time  |%varavg| %total
---------------------------------------------------------------
Pair    | 0          | 0          | 0          |   0.0 |  0.00
Neigh   | 0          | 0          | 0          |   0.0 |  0.00
Comm    | 0          | 0          | 0          |   0.0 |  0.00
Output  | 0          | 0          | 0          |   0.0 |  0.00
Modify  | 0          | 0          | 0          |   0.0 |  0.00
Other   |            | 6.31e-07   |            |       |100.00

Nlocal:              4 ave           4 max           4 min
Histogram: 1 0 0 0 0 0 0 0 0 0
Nghost:            500 ave         500 max         500 min
Histogram: 1 0 0 0 0 0 0 0 0 0
Neighs:            208 ave         208 max         208 min
Histogram: 1 0 0 0 0 0 0 0 0 0
FullNghs:          416 ave         416 max         416 min
Histogram: 1 0 0 0 0 0 0 0 0 0

Total # of neighbors = 416
Ave neighs/atom = 104
Neighbor list builds = 0
Dangerous builds = 0
set atom * x 0.0 y 0.0 z 0.0
Setting atom values ...
  4 settings made for x
  4 settings made for y
  4 settings made for z
change_box all     x final 0 3.8173338269806596 y final 0 3.363498633464171 z final 0 6.468645265487695      xy final -1.942305263659989 xz final -2.7920246716489727e-17 yz final 1.59273871025398e-17 units box
Changing box ...
  triclinic box = (0 0 0) to (3.8173338 3.3634986 6.4686453) with tilt (-1.9423053 -2.7920247e-17 1.5927387e-17)
  triclinic box = (0 0 0) to (3.8173338 3.3634986 6.4686453) with tilt (-1.9423053 -2.7920247e-17 1.5927387e-17)
  triclinic box = (0 0 0) to (3.8173338 3.3634986 6.4686453) with tilt (-1.9423053 -2.7920247e-17 1.5927387e-17)
  triclinic box = (0 0 0) to (3.8173338 3.3634986 6.4686453) with tilt (-1.9423053 -2.7920247e-17 1.5927387e-17)
  triclinic box = (0 0 0) to (3.8173338 3.3634986 6.4686453) with tilt (-1.9423053 -2.7920247e-17 1.5927387e-17)
  triclinic box = (0 0 0) to (3.8173338 3.3634986 6.4686453) with tilt (-1.9423053 -2.7920247e-17 1.5927387e-17)
echo none
run 0
Per MPI rank memory allocation (min/avg/max) = 3.625 | 3.625 | 3.625 Mbytes
    PotEng          Pxx           E_mol          E_coul    
-652.59305     -14102.797      0              0            
Loop time of 6.46e-07 on 1 procs for 0 steps with 4 atoms

154.8% CPU use with 1 MPI tasks x 1 OpenMP threads

MPI task timing breakdown:
Section |  min time  |  avg time  |  max time  |%varavg| %total
---------------------------------------------------------------
Pair    | 0          | 0          | 0          |   0.0 |  0.00
Neigh   | 0          | 0          | 0          |   0.0 |  0.00
Comm    | 0          | 0          | 0          |   0.0 |  0.00
Output  | 0          | 0          | 0          |   0.0 |  0.00
Modify  | 0          | 0          | 0          |   0.0 |  0.00
Other   |            | 6.46e-07   |            |       |100.00

Nlocal:              4 ave           4 max           4 min
Histogram: 1 0 0 0 0 0 0 0 0 0
Nghost:            500 ave         500 max         500 min
Histogram: 1 0 0 0 0 0 0 0 0 0
Neighs:            214 ave         214 max         214 min
Histogram: 1 0 0 0 0 0 0 0 0 0
FullNghs:          428 ave         428 max         428 min
Histogram: 1 0 0 0 0 0 0 0 0 0

Total # of neighbors = 428
Ave neighs/atom = 107
Neighbor list builds = 0
Dangerous builds = 0
set atom * x 0.0 y 0.0 z 0.0
Setting atom values ...
  4 settings made for x
  4 settings made for y
  4 settings made for z
change_box all     x final 0 3.8173338269806596 y final 0 3.363498633464171 z final 0 6.468645265487695      xy final -1.942305263659989 xz final -2.7920246716489727e-17 yz final 1.59273871025398e-17 units box
Changing box ...
  triclinic box = (0 0 0) to (3.8173338 3.3634986 6.4686453) with tilt (-1.9423053 -2.7920247e-17 1.5927387e-17)
  triclinic box = (0 0 0) to (3.8173338 3.3634986 6.4686453) with tilt (-1.9423053 -2.7920247e-17 1.5927387e-17)
  triclinic box = (0 0 0) to (3.8173338 3.3634986 6.4686453) with tilt (-1.9423053 -2.7920247e-17 1.5927387e-17)
  triclinic box = (0 0 0) to (3.8173338 3.3634986 6.4686453) with tilt (-1.9423053 -2.7920247e-17 1.5927387e-17)
  triclinic box = (0 0 0) to (3.8173338 3.3634986 6.4686453) with tilt (-1.9423053 -2.7920247e-17 1.5927387e-17)
  triclinic box = (0 0 0) to (3.8173338 3.3634986 6.4686453) with tilt (-1.9423053 -2.7920247e-17 1.5927387e-17)
echo none
run 0
Per MPI rank memory allocation (min/avg/max) = 3.625 | 3.625 | 3.625 Mbytes
    PotEng          Pxx           E_mol          E_coul    
-652.63196      3284.8257      0              0            
Loop time of 6.15e-07 on 1 procs for 0 steps with 4 atoms

325.2% CPU use with 1 MPI tasks x 1 OpenMP threads

MPI task timing breakdown:
Section |  min time  |  avg time  |  max time  |%varavg| %total
---------------------------------------------------------------
Pair    | 0          | 0          | 0          |   0.0 |  0.00
Neigh   | 0          | 0          | 0          |   0.0 |  0.00
Comm    | 0          | 0          | 0          |   0.0 |  0.00
Output  | 0          | 0          | 0          |   0.0 |  0.00
Modify  | 0          | 0          | 0          |   0.0 |  0.00
Other   |            | 6.15e-07   |            |       |100.00

Nlocal:              4 ave           4 max           4 min
Histogram: 1 0 0 0 0 0 0 0 0 0
Nghost:            500 ave         500 max         500 min
Histogram: 1 0 0 0 0 0 0 0 0 0
Neighs:            208 ave         208 max         208 min
Histogram: 1 0 0 0 0 0 0 0 0 0
FullNghs:          416 ave         416 max         416 min
Histogram: 1 0 0 0 0 0 0 0 0 0

Total # of neighbors = 416
Ave neighs/atom = 104
Neighbor list builds = 0
Dangerous builds = 0
Total wall time: 0:00:12
