4
Lattice="2.076755970814625 -3.59704685637296 3.126187476039264e-16 2.076755970814626 3.59704685637296 -3.126187476039308e-16 6.557003975722789e-30 -9.30644313050999e-16 6.813283278787099" Properties=species:S:1:pos:R:3:forces:R:3 cutoff=-1.0 nneightol=1.2 n_minim_iter=3 energy=-651.689956723499 stress="0.07522906394727542 3.343320015947067e-17 -4.355784699972841e-18 3.343320015947067e-17 0.0752290639472753 -1.1101389913225923e-16 -4.355784699972841e-18 -1.1101389913225923e-16 0.07533374496986764" free_energy=-651.689956723499 pbc="T T T"
Si       2.07675597       1.19901562       0.43714556       0.00000000       0.00000000       0.00205706
Si       2.07675597      -1.19901562       3.84378720      -0.00000000      -0.00000000       0.00205706
Si       2.07675597       1.19901562       2.96949608      -0.00000000       0.00000000      -0.00205706
Si       2.07675597      -1.19901562      -0.43714556      -0.00000000      -0.00000000      -0.00205706
