4
Lattice="1.8150691445316394 -3.1437919775793777 4.316282973462914e-17 1.8150691445316387 3.1437919775793777 -4.31628297346292e-17 8.70812793599791e-32 8.327335342670838e-17 6.065267315849377" Properties=species:S:1:pos:R:3:forces:R:3 cutoff=-1.0 nneightol=1.2 n_minim_iter=1 energy=-652.0014133566156 stress="-0.12273723741110314 -1.5253664540538433e-16 3.2471060248965364e-16 -1.5253664540538433e-16 -0.1227372374111029 3.836439774181488e-18 3.2471060248965364e-16 3.836439774181488e-18 -0.12697025126958505" free_energy=-652.0014133566156 pbc="T T T"
Si       1.81506914       1.04793066       0.39216166      -0.00000000      -0.00000000       0.05558518
Si       1.81506914      -1.04793066       3.42479531      -0.00000000       0.00000000       0.05558518
Si       1.81506914       1.04793066       2.64047200       0.00000000      -0.00000000      -0.05558518
Si       1.81506914      -1.04793066      -0.39216166       0.00000000       0.00000000      -0.05558518
4
Lattice="1.8131212268272172 -3.1404180851463557 3.198388337068786e-17 1.8131212268272165 3.1404180851463557 -3.198388337068784e-17 8.088376875025965e-32 1.0638503799038329e-16 6.078306695579954" Properties=species:S:1:pos:R:3:forces:R:3 cutoff=-1.0 nneightol=1.2 n_minim_iter=2 energy=-652.0018006255474 stress="-0.12428366041696269 -2.7915785010018896e-16 -5.4962371011681603e-17 -2.7915785010018896e-16 -0.12428366041696402 -2.0326678101346076e-16 -5.4962371011681603e-17 -2.0326678101346076e-16 -0.12276334311349595" free_energy=-652.0018006255474 pbc="T T T"
Si       1.81312123       1.04680603       0.39361716       0.00000000       0.00000000       0.09624738
Si       1.81312123      -1.04680603       3.43277051       0.00000000      -0.00000000       0.09624738
Si       1.81312123       1.04680603       2.64553619      -0.00000000       0.00000000      -0.09624738
Si       1.81312123      -1.04680603      -0.39361716      -0.00000000      -0.00000000      -0.09624738
4
Lattice="1.8117055926638403 -3.1379661348504566 9.856828906570236e-17 1.8117055926638397 3.1379661348504566 -9.85682890657022e-17 -1.9827588723499806e-31 -2.5600385778932485e-17 6.087809365783469" Properties=species:S:1:pos:R:3:forces:R:3 cutoff=-1.0 nneightol=1.2 n_minim_iter=3 energy=-652.0024804488037 stress="-0.12312693956790002 -8.799484282542867e-17 -2.3379706176678757e-16 -8.799484282542867e-17 -0.12312693956790054 3.08336660536099e-16 -2.3379706176678757e-16 3.08336660536099e-16 -0.12314228554563002" free_energy=-652.0024804488037 pbc="T T T"
Si       1.81170559       1.04598871       0.39805049      -0.00000000       0.00000000       0.00321199
Si       1.81170559      -1.04598871       3.44195517       0.00000000      -0.00000000       0.00321199
Si       1.81170559       1.04598871       2.64585419      -0.00000000       0.00000000      -0.00321199
Si       1.81170559      -1.04598871      -0.39805049       0.00000000      -0.00000000      -0.00321199
