4
Lattice="1.7454357210786846 -3.0231833502539005 3.031884730309133e-16 1.7454357210786846 3.0231833502539005 -3.0318847303091377e-16 1.4757196192619048e-30 5.950562172858909e-16 5.980140005628939" Properties=species:S:1:pos:R:3:forces:R:3 cutoff=-1.0 nneightol=1.2 n_minim_iter=3 energy=-650.9600495360999 stress="-0.22101939157214234 2.591323496397123e-16 -1.430588966407771e-16 2.591323496397123e-16 -0.22101939157214262 -5.565862254401685e-16 -1.430588966407771e-16 -5.565862254401685e-16 -0.22106480666144968" free_energy=-650.9600495360999 pbc="T T T"
Si       1.74543572       1.00772778       0.40548300       0.00000000      -0.00000000       0.00349764
Si       1.74543572      -1.00772778       3.39555300       0.00000000       0.00000000       0.00349764
Si       1.74543572       1.00772778       2.58458700      -0.00000000      -0.00000000      -0.00349764
Si       1.74543572      -1.00772778      -0.40548300      -0.00000000       0.00000000      -0.00349764
