4
Lattice="1.8150691445316396 -3.1437919775793777 4.3162829734629155e-17 1.8150691445316391 3.1437919775793777 -4.31628297346292e-17 -2.736846816097525e-32 -7.313821900990951e-17 6.065267315849377" Properties=species:S:1:pos:R:3:forces:R:3 cutoff=-1.0 nneightol=1.2 n_minim_iter=3 energy=-652.2243740213473 stress="-0.09543861640215737 2.462367365723825e-16 4.3369069437941514e-17 2.462367365723825e-16 -0.09543861640215805 -6.195894627409468e-17 4.3369069437941514e-17 -6.195894627409468e-17 -0.09544738060953067" free_energy=-652.2243740213473 pbc="T T T"
Si       1.81506914       1.04793066       0.39216166       0.00000000      -0.00000000       0.00277130
Si       1.81506914      -1.04793066       3.42479531       0.00000000      -0.00000000       0.00277130
Si       1.81506914       1.04793066       2.64047200      -0.00000000       0.00000000      -0.00277130
Si       1.81506914      -1.04793066      -0.39216166       0.00000000       0.00000000      -0.00277130
