4
Lattice="1.9877740751867774 -3.4429256921917366 5.181020630653733e-18 1.9877740751867774 3.4429256921917366 -5.181020630653705e-18 -7.590275858313107e-33 -5.1192696375685345e-17 6.544493029674616" Properties=species:S:1:pos:R:3:forces:R:3 cutoff=-1.0 nneightol=1.2 n_minim_iter=2 energy=-652.4638144285569 stress="0.04426917464052318 -1.1416714063674147e-16 -1.0666956852816967e-16 -1.1416714063674147e-16 0.04426917464052183 8.879166361170022e-18 -1.0666956852816967e-16 8.879166361170022e-18 0.04417736684224927" free_energy=-652.4638144285569 pbc="T T T"
Si       1.98777408       1.14764190       0.40952958       0.00000000       0.00000000       0.00710366
Si       1.98777408      -1.14764190       3.68177609       0.00000000      -0.00000000       0.00710366
Si       1.98777408       1.14764190       2.86271694      -0.00000000       0.00000000      -0.00710366
Si       1.98777408      -1.14764190      -0.40952958      -0.00000000      -0.00000000      -0.00710366
