4
Lattice="2.0615914052013125 -3.5707810582559905 -5.808467166226283e-17 2.061591405201313 3.5707810582559905 5.808467166226277e-17 1.012759068770478e-31 -1.1021649194870659e-16 6.775607927100634" Properties=species:S:1:pos:R:3:forces:R:3 cutoff=-1.0 nneightol=1.2 n_minim_iter=1 energy=-651.8408643402988 stress="0.07283736822613686 -5.052069495750474e-17 4.700495766730497e-17 -5.052069495750474e-17 0.07283736822613684 3.8889922748242993e-17 4.700495766730497e-17 3.8889922748242993e-17 0.07415809331983066" free_energy=-651.8408643402988 pbc="T T T"
Si       2.06159141       1.19026035       0.43008321      -0.00000000      -0.00000000       0.04153322
Si       2.06159141      -1.19026035       3.81788717      -0.00000000      -0.00000000       0.04153322
Si       2.06159141       1.19026035       2.95772076       0.00000000      -0.00000000      -0.04153322
Si       2.06159141      -1.19026035      -0.43008321      -0.00000000       0.00000000      -0.04153322
4
Lattice="2.062962350238851 -3.5731556047153923 -8.041392666119263e-17 2.0629623502388514 3.5731556047153923 8.041392666119254e-17 1.540778523218639e-31 -7.005669855077545e-17 6.766605436524524" Properties=species:S:1:pos:R:3:forces:R:3 cutoff=-1.0 nneightol=1.2 n_minim_iter=2 energy=-651.8410136927639 stress="0.07323892178599821 1.1153056420616728e-16 6.104965782540477e-17 1.1153056420616728e-16 0.07323892178599864 -3.237725903797295e-17 6.104965782540477e-17 -3.237725903797295e-17 0.07295430984597276" free_energy=-651.8410136927639 pbc="T T T"
Si       2.06296235       1.19105187       0.43013962       0.00000000       0.00000000       0.02235926
Si       2.06296235      -1.19105187       3.81344234      -0.00000000       0.00000000       0.02235926
Si       2.06296235       1.19105187       2.95316310       0.00000000      -0.00000000      -0.02235926
Si       2.06296235      -1.19105187      -0.43013962      -0.00000000      -0.00000000      -0.02235926
4
Lattice="2.06220395897404 -3.5718420325127234 -9.259365991885036e-17 2.0622039589740404 3.5718420325127234 9.259365991885048e-17 8.840828906347312e-32 -4.665169862368121e-17 6.771583293395015" Properties=species:S:1:pos:R:3:forces:R:3 cutoff=-1.0 nneightol=1.2 n_minim_iter=3 energy=-651.8410951789332 stress="0.07302874120610041 -1.866565096277684e-17 5.357264060734379e-17 -1.866565096277684e-17 0.07302874120610058 -1.9992063077225315e-17 5.357264060734379e-17 -1.9992063077225315e-17 0.07312555685224906" free_energy=-651.8410951789332 pbc="T T T"
Si       2.06220396       1.19061401       0.43200182       0.00000000      -0.00000000       0.00174929
Si       2.06220396      -1.19061401       3.81779347      -0.00000000       0.00000000       0.00174929
Si       2.06220396       1.19061401       2.95378983       0.00000000      -0.00000000      -0.00174929
Si       2.06220396      -1.19061401      -0.43200182      -0.00000000       0.00000000      -0.00174929
