4
Lattice="2.0173622426297215 -3.4941739015057705 -6.0814192407846905e-19 2.0173622426297215 3.4941739015057705 6.081419240784064e-19 1.0327218160695733e-31 -1.1561331683080296e-18 6.642742727347401" Properties=species:S:1:pos:R:3:forces:R:3 cutoff=-1.0 nneightol=1.2 n_minim_iter=1 energy=-652.2511573298038 stress="0.0591976191364568 2.891643837370286e-17 -1.0959692317702596e-16 2.891643837370286e-17 0.05919761913645726 -9.356527162306195e-18 -1.0959692317702596e-16 -9.356527162306195e-18 0.06009262991546972" free_energy=-652.2511573298038 pbc="T T T"
Si       2.01736224       1.16472463       0.41705397       0.00000000      -0.00000000       0.02581548
Si       2.01736224      -1.16472463       3.73842534      -0.00000000       0.00000000       0.02581548
Si       2.01736224       1.16472463       2.90431739       0.00000000      -0.00000000      -0.02581548
Si       2.01736224      -1.16472463      -0.41705397       0.00000000       0.00000000      -0.02581548
4
Lattice="2.018087234496595 -3.495429624254269 -2.4664980098353658e-17 2.018087234496595 3.495429624254269 2.4664980098353677e-17 1.8087114155616285e-32 4.196598398141726e-17 6.637970813315486" Properties=species:S:1:pos:R:3:forces:R:3 cutoff=-1.0 nneightol=1.2 n_minim_iter=2 energy=-652.2512072590115 stress="0.05950781637238135 -7.934805272286115e-17 8.303080707251755e-17 -7.934805272286115e-17 0.059507816372380916 -1.6394735094534783e-16 8.303080707251755e-17 -1.6394735094534783e-16 0.059319023948375765" free_energy=-652.2512072590115 pbc="T T T"
Si       2.01808723       1.16514321       0.41708614      -0.00000000       0.00000000       0.01352288
Si       2.01808723      -1.16514321       3.73607154      -0.00000000       0.00000000       0.01352288
Si       2.01808723       1.16514321       2.90189927       0.00000000      -0.00000000      -0.01352288
Si       2.01808723      -1.16514321      -0.41708614       0.00000000      -0.00000000      -0.01352288
4
Lattice="2.017646244325087 -3.4946658068715792 -2.5284791919534737e-17 2.017646244325087 3.4946658068715792 2.528479191953471e-17 2.1827005094645707e-32 4.312718675047564e-17 6.640872808448215" Properties=species:S:1:pos:R:3:forces:R:3 cutoff=-1.0 nneightol=1.2 n_minim_iter=3 energy=-652.2512360847664 stress="0.059396091530324616 -1.8755569643793437e-16 -7.715177357976429e-19 -1.8755569643793437e-16 0.05939609153032491 2.9417616115610824e-17 -7.715177357976429e-19 2.9417616115610824e-17 0.059452002927511044" free_energy=-652.2512360847664 pbc="T T T"
Si       2.01764624       1.16488860       0.41817563      -0.00000000       0.00000000       0.00085825
Si       2.01764624      -1.16488860       3.73861204      -0.00000000       0.00000000       0.00085825
Si       2.01764624       1.16488860       2.90226077       0.00000000      -0.00000000      -0.00085825
Si       2.01764624      -1.16488860      -0.41817563       0.00000000      -0.00000000      -0.00085825
