4
Lattice="1.7718500325145672 -3.068934279707797 1.0730521111948274e-16 1.7718500325145674 3.068934279707797 -1.0730521111948217e-16 -4.101387386884141e-31 1.6313426174718306e-16 5.990367050113004" Properties=species:S:1:pos:R:3:forces:R:3 cutoff=-1.0 nneightol=1.2 n_minim_iter=3 energy=-651.7211065569263 stress="-0.15379650554958882 -1.309219839746886e-16 -2.398043758722914e-16 -1.309219839746886e-16 -0.15379650554958924 -1.152629799819997e-16 -2.398043758722914e-16 -1.152629799819997e-16 -0.15381443124884908" free_energy=-651.7211065569263 pbc="T T T"
Si       1.77185003       1.02297809       0.39637193       0.00000000      -0.00000000       0.00357172
Si       1.77185003      -1.02297809       3.39155545       0.00000000       0.00000000       0.00357172
Si       1.77185003       1.02297809       2.59881160      -0.00000000      -0.00000000      -0.00357172
Si       1.77185003      -1.02297809      -0.39637193      -0.00000000       0.00000000      -0.00357172
