4
Lattice="1.8356436754079206 -3.1794281103989905 3.3807909090359324e-18 1.8356436754079202 3.1794281103989905 -3.380790909035985e-18 8.703772349015347e-32 6.4910949113931434e-18 6.104479745668794" Properties=species:S:1:pos:R:3:forces:R:3 cutoff=-1.0 nneightol=1.2 n_minim_iter=1 energy=-652.2235302327422 stress="-0.095066393562164 3.0546401967936675e-16 -2.1344533846270265e-16 3.0546401967936675e-16 -0.0950663935621631 -1.891386650926869e-16 -2.1344533846270265e-16 -1.891386650926869e-16 -0.09870816505787618" free_energy=-652.2235302327422 pbc="T T T"
Si       1.83564368       1.05980937       0.39077670       0.00000000      -0.00000000       0.05129297
Si       1.83564368      -1.05980937       3.44301658       0.00000000       0.00000000       0.05129297
Si       1.83564368       1.05980937       2.66146317      -0.00000000      -0.00000000      -0.05129297
Si       1.83564368      -1.05980937      -0.39077670      -0.00000000       0.00000000      -0.05129297
4
Lattice="1.833820946422216 -3.176271051187322 2.3907500238964066e-17 1.8338209464222155 3.176271051187322 -2.390750023896412e-17 9.864780530389079e-32 -3.522533248216961e-17 6.116620889494567" Properties=species:S:1:pos:R:3:forces:R:3 cutoff=-1.0 nneightol=1.2 n_minim_iter=2 energy=-652.2238518815998 stress="-0.09640588050078482 -1.7558580690908717e-16 -3.0697532579570587e-16 -1.7558580690908717e-16 -0.09640588050078516 -4.812372433611312e-17 -3.0697532579570587e-16 -4.812372433611312e-17 -0.0950569257824169" free_energy=-652.2238518815998 pbc="T T T"
Si       1.83382095       1.05875702       0.39214420       0.00000000       0.00000000       0.08397235
Si       1.83382095      -1.05875702       3.45045465       0.00000000      -0.00000000       0.08397235
Si       1.83382095       1.05875702       2.66616624      -0.00000000      -0.00000000      -0.08397235
Si       1.83382095      -1.05875702      -0.39214420      -0.00000000      -0.00000000      -0.08397235
4
Lattice="1.8326922772040257 -3.1743161387564776 4.3581912543248694e-17 1.8326922772040253 3.1743161387564776 -4.3581912543248737e-17 -2.763419806272249e-32 -7.384834321697726e-17 6.1241570892349975" Properties=species:S:1:pos:R:3:forces:R:3 cutoff=-1.0 nneightol=1.2 n_minim_iter=3 energy=-652.2243740213473 stress="-0.09543861640215737 2.462367365723825e-16 4.3369069437941514e-17 2.462367365723825e-16 -0.09543861640215805 -6.195894627409468e-17 4.3369069437941514e-17 -6.195894627409468e-17 -0.09544738060953067" free_energy=-652.2243740213473 pbc="T T T"
Si       1.83269228       1.05810538       0.39596929       0.00000000      -0.00000000       0.00277130
Si       1.83269228      -1.05810538       3.45804783       0.00000000      -0.00000000       0.00277130
Si       1.83269228       1.05810538       2.66610926      -0.00000000       0.00000000      -0.00277130
Si       1.83269228      -1.05810538      -0.39596929       0.00000000       0.00000000      -0.00277130
