4
Lattice="1.7901178154846487 -3.100575007953619 1.0841152839934167e-16 1.7901178154846489 3.100575007953619 -1.084115283993411e-16 -4.143672711987812e-31 1.6481617682684288e-16 6.052127765283289" Properties=species:S:1:pos:R:3:forces:R:3 cutoff=-1.0 nneightol=1.2 n_minim_iter=3 energy=-651.7211065569263 stress="-0.15379650554958882 -1.309219839746886e-16 -2.398043758722914e-16 -1.309219839746886e-16 -0.15379650554958924 -1.152629799819997e-16 -2.398043758722914e-16 -1.152629799819997e-16 -0.15381443124884908" free_energy=-651.7211065569263 pbc="T T T"
Si       1.79011782       1.03352500       0.40045853       0.00000000      -0.00000000       0.00357172
Si       1.79011782      -1.03352500       3.42652241       0.00000000       0.00000000       0.00357172
Si       1.79011782       1.03352500       2.62560536      -0.00000000      -0.00000000      -0.00357172
Si       1.79011782      -1.03352500      -0.40045853      -0.00000000       0.00000000      -0.00357172
