4
Lattice="2.046918440040424 -3.545366737099643 -4.261095503653087e-17 2.046918440040424 3.545366737099643 4.2610955036530883e-17 -9.750282879406534e-33 -1.8344928486183346e-17 6.732828278067032" Properties=species:S:1:pos:R:3:forces:R:3 cutoff=-1.0 nneightol=1.2 n_minim_iter=3 energy=-652.1241863275286 stress="0.06517459865790463 1.6863030428803995e-18 -1.2648146677324347e-16 1.6863030428803995e-18 0.06517459865790501 -9.305080539779794e-18 -1.2648146677324347e-16 -9.305080539779794e-18 0.06524652569715648" free_energy=-652.1241863275286 pbc="T T T"
Si       2.04691844       1.18178891       0.42551212      -0.00000000      -0.00000000       0.00112638
Si       2.04691844      -1.18178891       3.79192626       0.00000000       0.00000000       0.00112638
Si       2.04691844       1.18178891       2.94090201      -0.00000000      -0.00000000      -0.00112638
Si       2.04691844      -1.18178891      -0.42551212       0.00000000       0.00000000      -0.00112638
