4
Lattice="2.0321621840206388 -3.5198081519438804 -2.5466703151868383e-17 2.0321621840206388 3.5198081519438804 2.5466703151868362e-17 3.236734800650897e-32 -4.8394079957379985e-17 6.68865051451755" Properties=species:S:1:pos:R:3:forces:R:3 cutoff=-1.0 nneightol=1.2 n_minim_iter=1 energy=-652.1240608950889 stress="0.06494742042892779 -1.1294272703665645e-16 -9.499931685959727e-17 -1.1294272703665645e-16 0.06494742042892791 2.7204983411165478e-17 -9.499931685959727e-17 2.7204983411165478e-17 0.0660752123309542" free_energy=-652.1240608950889 pbc="T T T"
Si       2.03216218       1.17326938       0.42118419       0.00000000      -0.00000000       0.03151929
Si       2.03216218      -1.17326938       3.76550945       0.00000000       0.00000000       0.03151929
Si       2.03216218       1.17326938       2.92314106      -0.00000000      -0.00000000      -0.03151929
Si       2.03216218      -1.17326938      -0.42118419       0.00000000       0.00000000      -0.03151929
4
Lattice="2.033131135170496 -3.521486424565485 -4.2291022279378765e-17 2.033131135170496 3.521486424565485 4.2291022279378784e-17 -1.0631207762498743e-32 -1.8221363659706403e-17 6.6822766696229845" Properties=species:S:1:pos:R:3:forces:R:3 cutoff=-1.0 nneightol=1.2 n_minim_iter=2 energy=-652.124143304447 stress="0.06531217091097587 -1.4601078053787876e-16 3.6467821839168115e-17 -1.4601078053787876e-16 0.06531217091097583 3.2616169988301994e-17 3.6467821839168115e-17 3.2616169988301994e-17 0.065106984940541" free_energy=-652.124143304447 pbc="T T T"
Si       2.03313114       1.17382881       0.42120013       0.00000000      -0.00000000       0.01662796
Si       2.03313114      -1.17382881       3.76233847       0.00000000       0.00000000       0.01662796
Si       2.03313114       1.17382881       2.91993820      -0.00000000      -0.00000000      -0.01662796
Si       2.03313114      -1.17382881      -0.42120013      -0.00000000       0.00000000      -0.01662796
4
Lattice="2.0326038567482905 -3.5205731515484913 -4.231296658076429e-17 2.0326038567482905 3.5205731515484913 4.2312966580764305e-17 -9.682096852221019e-33 -1.8216638075746417e-17 6.685744022391403" Properties=species:S:1:pos:R:3:forces:R:3 cutoff=-1.0 nneightol=1.2 n_minim_iter=3 energy=-652.1241863275286 stress="0.06517459865790463 1.6863030428803995e-18 -1.2648146677324347e-16 1.6863030428803995e-18 0.06517459865790501 -9.305080539779794e-18 -1.2648146677324347e-16 -9.305080539779794e-18 0.06524652569715648" free_energy=-652.1241863275286 pbc="T T T"
Si       2.03260386       1.17352438       0.42253642      -0.00000000      -0.00000000       0.00112638
Si       2.03260386      -1.17352438       3.76540843       0.00000000       0.00000000       0.00112638
Si       2.03260386       1.17352438       2.92033559      -0.00000000      -0.00000000      -0.00112638
Si       2.03260386      -1.17352438      -0.42253642       0.00000000       0.00000000      -0.00112638
