4
Lattice="2.002720306130291 -3.4688133235675593 5.2199771357392424e-18 2.002720306130291 3.4688133235675593 -5.219977135739215e-18 -4.515757352906565e-32 9.92240525474686e-18 6.593701591880329" Properties=species:S:1:pos:R:3:forces:R:3 cutoff=-1.0 nneightol=1.2 n_minim_iter=1 energy=-652.3651910237228 stress="0.052301334612502755 1.4500864159063762e-16 2.7713481097404358e-17 1.4500864159063762e-16 0.052301334612502595 -1.1014572214996858e-16 2.7713481097404358e-17 -1.1014572214996858e-16 0.052789564475567846" free_energy=-652.3651910237228 pbc="T T T"
Si       2.00272031       1.15627111       0.41260886      -0.00000000      -0.00000000       0.02575095
Si       2.00272031      -1.15627111       3.70945966       0.00000000       0.00000000       0.02575095
Si       2.00272031       1.15627111       2.88424193      -0.00000000      -0.00000000      -0.02575095
Si       2.00272031      -1.15627111      -0.41260886       0.00000000       0.00000000      -0.02575095
4
Lattice="2.0032253701090013 -3.4696881200397587 5.217345290011078e-18 2.0032253701090013 3.4696881200397587 -5.217345290011016e-18 1.060156383122681e-31 9.924907575945173e-18 6.590377131846095" Properties=species:S:1:pos:R:3:forces:R:3 cutoff=-1.0 nneightol=1.2 n_minim_iter=2 energy=-652.3652263394267 stress="0.05256533832317055 6.121603432921881e-17 -1.0200755837855751e-16 6.121603432921881e-17 0.05256533832317049 3.6599107145071474e-17 -1.0200755837855751e-16 3.6599107145071474e-17 0.05215456785212607" free_energy=-652.3652263394267 pbc="T T T"
Si       2.00322537       1.15656271       0.41283612      -0.00000000       0.00000000       0.01271262
Si       2.00322537      -1.15656271       3.70802469      -0.00000000       0.00000000       0.01271262
Si       2.00322537       1.15656271       2.88235244       0.00000000      -0.00000000      -0.01271262
Si       2.00322537      -1.15656271      -0.41283612       0.00000000      -0.00000000      -0.01271262
4
Lattice="2.0026364457994656 -3.4686680732138315 -6.037027736727062e-19 2.0026364457994656 3.4686680732138315 6.037027736726439e-19 8.740252112385331e-32 2.1185837643895128e-17 6.594253825487582" Properties=species:S:1:pos:R:3:forces:R:3 cutoff=-1.0 nneightol=1.2 n_minim_iter=3 energy=-652.3652617566909 stress="0.05239676137101802 -2.3922313961419602e-17 1.0986069282933267e-16 -2.3922313961419602e-17 0.052396761371017904 -1.0602270384507535e-16 1.0986069282933267e-16 -1.0602270384507535e-16 0.05242944433016669" free_energy=-652.3652617566909 pbc="T T T"
Si       2.00263645       1.15622269       0.41400968      -0.00000000       0.00000000       0.00083498
Si       2.00263645      -1.15622269       3.71113659      -0.00000000      -0.00000000       0.00083498
Si       2.00263645       1.15622269       2.88311724       0.00000000       0.00000000      -0.00083498
Si       2.00263645      -1.15622269      -0.41400968       0.00000000      -0.00000000      -0.00083498
