4
Lattice="2.0321621840206388 -3.519808151943881 -2.5466703151868386e-17 2.0321621840206388 3.519808151943881 2.546670315186836e-17 2.1984039307446653e-32 4.343746494907934e-17 6.68865051451755" Properties=species:S:1:pos:R:3:forces:R:3 cutoff=-1.0 nneightol=1.2 n_minim_iter=3 energy=-652.2512360847664 stress="0.059396091530324616 -1.8755569643793437e-16 -7.715177357976429e-19 -1.8755569643793437e-16 0.05939609153032491 2.9417616115610824e-17 -7.715177357976429e-19 2.9417616115610824e-17 0.059452002927511044" free_energy=-652.2512360847664 pbc="T T T"
Si       2.03216218       1.17326938       0.42118419      -0.00000000       0.00000000       0.00085825
Si       2.03216218      -1.17326938       3.76550945      -0.00000000       0.00000000       0.00085825
Si       2.03216218       1.17326938       2.92314106       0.00000000      -0.00000000      -0.00085825
Si       2.03216218      -1.17326938      -0.42118419       0.00000000      -0.00000000      -0.00085825
