4
Lattice="1.7493977016916458 -3.0300457019741525 3.0268897384160557e-16 1.749397701691646 3.0300457019741525 -3.026889738416064e-16 -1.8772867537522498e-30 -1.878944510343935e-16 5.953083414736636" Properties=species:S:1:pos:R:3:forces:R:3 cutoff=-1.0 nneightol=1.2 n_minim_iter=3 energy=-651.3748535615217 stress="-0.1867218571645395 -5.498215210416026e-16 -2.1599727155629106e-16 -5.498215210416026e-16 -0.18672185716453715 1.7845785643915707e-16 -2.1599727155629106e-16 1.7845785643915707e-16 -0.1867287469960039" free_energy=-651.3748535615217 pbc="T T T"
Si       1.74939770       1.01001523       0.39873983       0.00000000      -0.00000000       0.00385331
Si       1.74939770      -1.01001523       3.37528154       0.00000000       0.00000000       0.00385331
Si       1.74939770       1.01001523       2.57780187      -0.00000000      -0.00000000      -0.00385331
Si       1.74939770      -1.01001523      -0.39873983      -0.00000000       0.00000000      -0.00385331
