4
Lattice="2.0761381921909927 -3.595976832408999 -9.321931173476596e-17 2.076138192190993 3.595976832408999 9.321931173476609e-17 8.900566048872006e-32 -4.696692236562028e-17 6.8173386225163535" Properties=species:S:1:pos:R:3:forces:R:3 cutoff=-1.0 nneightol=1.2 n_minim_iter=3 energy=-651.8410951789332 stress="0.07302874120610041 -1.866565096277684e-17 5.357264060734379e-17 -1.866565096277684e-17 0.07302874120610058 -1.9992063077225315e-17 5.357264060734379e-17 -1.9992063077225315e-17 0.07312555685224906" free_energy=-651.8410951789332 pbc="T T T"
Si       2.07613819       1.19865894       0.43492084       0.00000000      -0.00000000       0.00174929
Si       2.07613819      -1.19865894       3.84359015      -0.00000000       0.00000000       0.00174929
Si       2.07613819       1.19865894       2.97374847       0.00000000      -0.00000000      -0.00174929
Si       2.07613819      -1.19865894      -0.43492084      -0.00000000       0.00000000      -0.00174929
