4
Lattice="1.9721981932031125 -3.4159474732233313 -1.1208390708990034e-17 1.9721981932031125 3.4159474732233313 1.1208390708990059e-17 9.721570380763268e-34 -1.0750292265283405e-17 6.497177321806175" Properties=species:S:1:pos:R:3:forces:R:3 cutoff=-1.0 nneightol=1.2 n_minim_iter=2 energy=-652.6052629937396 stress="0.024375087700326703 -1.028813510988019e-16 1.8225291843410812e-16 -1.028813510988019e-16 0.02437508770032677 -4.333034075743876e-17 1.8225291843410812e-16 -4.333034075743876e-17 0.024736253261254705" free_energy=-652.6052629937396 pbc="T T T"
Si       1.97219819       1.13864916       0.40640302      -0.00000000       0.00000000      -0.00183503
Si       1.97219819      -1.13864916       3.65499168      -0.00000000       0.00000000      -0.00183503
Si       1.97219819       1.13864916       2.84218564       0.00000000      -0.00000000       0.00183503
Si       1.97219819      -1.13864916      -0.40640302       0.00000000      -0.00000000       0.00183503
