4
Lattice="1.7219547329131466 -2.982513085739266 3.0619188127197496e-16 1.7219547329131466 2.982513085739266 -3.061918812719759e-16 2.921110648819223e-31 5.829961968067923e-16 5.946140559470008" Properties=species:S:1:pos:R:3:forces:R:3 cutoff=-1.0 nneightol=1.2 n_minim_iter=3 energy=-650.4740811665511 stress="-0.2568814111322146 -1.1001673128293702e-17 1.782915037860497e-16 -1.1001673128293702e-17 -0.2568814111322139 -2.6928417871743207e-16 1.782915037860497e-16 -2.6928417871743207e-16 -0.25698774134756963" free_energy=-650.4740811665511 pbc="T T T"
Si       1.72195473       0.99417103       0.40862932       0.00000000      -0.00000000       0.00211336
Si       1.72195473      -0.99417103       3.38169960       0.00000000       0.00000000       0.00211336
Si       1.72195473       0.99417103       2.56444096      -0.00000000      -0.00000000      -0.00211336
Si       1.72195473      -0.99417103      -0.40862932      -0.00000000       0.00000000      -0.00211336
