4
Lattice="1.9873695447382627 -3.4422250249016995 -1.1294612487397218e-17 1.9873695447382627 3.4422250249016995 1.129461248739724e-17 -3.938776805268865e-32 -2.1482502493652476e-17 6.547157573017762" Properties=species:S:1:pos:R:3:forces:R:3 cutoff=-1.0 nneightol=1.2 n_minim_iter=1 energy=-652.544580821381 stress="0.03481275889612041 7.715608588518942e-17 2.431589531086058e-18 7.715608588518942e-17 0.03481275889612024 -2.7656247434534095e-16 2.431589531086058e-18 -2.7656247434534095e-16 0.03515713577629796" free_energy=-652.544580821381 pbc="T T T"
Si       1.98736954       1.14740834       0.40952932       0.00000000       0.00000000       0.00290129
Si       1.98736954      -1.14740834       3.68310811      -0.00000000       0.00000000       0.00290129
Si       1.98736954       1.14740834       2.86404946       0.00000000      -0.00000000      -0.00290129
Si       1.98736954      -1.14740834      -0.40952932       0.00000000      -0.00000000      -0.00290129
