4
Lattice="2.0761381921909927 -3.595976832408998 -9.321931173476592e-17 2.0761381921909936 3.595976832408998 9.321931173476604e-17 -1.9492942280646362e-31 -1.7672739393820736e-16 6.8173386225163535" Properties=species:S:1:pos:R:3:forces:R:3 cutoff=-1.0 nneightol=1.2 n_minim_iter=1 energy=-651.6896775737567 stress="0.07508888474034646 -6.510882273574687e-17 -4.1818429794191934e-17 -6.510882273574687e-17 0.07508888474034664 -4.800691858142487e-18 -4.1818429794191934e-17 -4.800691858142487e-18 0.07638347385680748" free_energy=-651.6896775737567 pbc="T T T"
Si       2.07613819       1.19865894       0.43492084       0.00000000      -0.00000000       0.04544762
Si       2.07613819      -1.19865894       3.84359015      -0.00000000       0.00000000       0.04544762
Si       2.07613819       1.19865894       2.97374847       0.00000000      -0.00000000      -0.04544762
Si       2.07613819      -1.19865894      -0.43492084      -0.00000000       0.00000000      -0.04544762
4
Lattice="2.077655816962954 -3.5986054356208608 1.1007699206798763e-16 2.077655816962955 3.5986054356208608 -1.1007699206798778e-16 -7.738309443178872e-31 -5.393768368509847e-16 6.807382802877465" Properties=species:S:1:pos:R:3:forces:R:3 cutoff=-1.0 nneightol=1.2 n_minim_iter=2 energy=-651.6898546540888 stress="0.07547992002349449 -3.997458942985644e-17 1.16225691670165e-16 -3.997458942985644e-17 0.07547992002349438 -2.4119904095364873e-17 1.16225691670165e-16 -2.4119904095364873e-17 0.07513950042210574" free_energy=-651.6898546540888 pbc="T T T"
Si       2.07765582       1.19953515       0.43504061       0.00000000       0.00000000       0.02444578
Si       2.07765582      -1.19953515       3.83873201      -0.00000000      -0.00000000       0.02444578
Si       2.07765582       1.19953515       2.96865079       0.00000000       0.00000000      -0.02444578
Si       2.07765582      -1.19953515      -0.43504061      -0.00000000      -0.00000000      -0.02444578
4
Lattice="2.076755970814625 -3.59704685637296 3.126187476039264e-16 2.076755970814626 3.59704685637296 -3.126187476039308e-16 6.557003975722789e-30 -9.30644313050999e-16 6.813283278787099" Properties=species:S:1:pos:R:3:forces:R:3 cutoff=-1.0 nneightol=1.2 n_minim_iter=3 energy=-651.689956723499 stress="0.07522906394727542 3.343320015947067e-17 -4.355784699972841e-18 3.343320015947067e-17 0.0752290639472753 -1.1101389913225923e-16 -4.355784699972841e-18 -1.1101389913225923e-16 0.07533374496986764" free_energy=-651.689956723499 pbc="T T T"
Si       2.07675597       1.19901562       0.43714556       0.00000000       0.00000000       0.00205706
Si       2.07675597      -1.19901562       3.84378720      -0.00000000      -0.00000000       0.00205706
Si       2.07675597       1.19901562       2.96949608      -0.00000000       0.00000000      -0.00205706
Si       2.07675597      -1.19901562      -0.43714556      -0.00000000      -0.00000000      -0.00205706
