4
Lattice="1.8356436754079204 -3.1794281103989914 3.3807909090359336e-18 1.8356436754079204 3.1794281103989914 -3.380790909035987e-18 1.0314775489457208e-31 -3.86061852025324e-17 6.104479745668794" Properties=species:S:1:pos:R:3:forces:R:3 cutoff=-1.0 nneightol=1.2 n_minim_iter=3 energy=-652.3931975163742 stress="-0.07098441124564135 -2.4539222128206653e-16 2.915049248681024e-16 -2.4539222128206653e-16 -0.07098441124563941 -1.0935405533318551e-16 2.915049248681024e-16 -1.0935405533318551e-16 -0.07098060879094223" free_energy=-652.3931975163742 pbc="T T T"
Si       1.83564368       1.05980937       0.39077670      -0.00000000      -0.00000000       0.00230734
Si       1.83564368      -1.05980937       3.44301658       0.00000000       0.00000000       0.00230734
Si       1.83564368       1.05980937       2.66146317      -0.00000000      -0.00000000      -0.00230734
Si       1.83564368      -1.05980937      -0.39077670       0.00000000       0.00000000      -0.00230734
