4
Lattice="1.726462090947193 -2.990320058862138 2.9989268512079476e-16 1.726462090947193 2.990320058862138 -2.9989268512079525e-16 8.446133609394326e-31 5.93215837714815e-16 5.915133335242237" Properties=species:S:1:pos:R:3:forces:R:3 cutoff=-1.0 nneightol=1.2 n_minim_iter=1 energy=-650.472754770157 stress="-0.2561939809019596 3.0206656109346764e-16 -1.8550056700930813e-16 3.0206656109346764e-16 -0.25619398090195983 -3.434585310924267e-16 -1.8550056700930813e-16 -3.434585310924267e-16 -0.2620187147487439" free_energy=-650.472754770157 pbc="T T T"
Si       1.72646209       0.99677335       0.40107523      -0.00000000      -0.00000000       0.03287498
Si       1.72646209      -0.99677335       3.35864190       0.00000000      -0.00000000       0.03287498
Si       1.72646209       0.99677335       2.55649144      -0.00000000      -0.00000000      -0.03287498
Si       1.72646209      -0.99677335      -0.40107523       0.00000000       0.00000000      -0.03287498
4
Lattice="1.7248184013403058 -2.9874731049511363 3.05176001417776e-16 1.7248184013403058 2.9874731049511363 -3.0517600141777695e-16 3.4072227174161188e-31 5.839657390195103e-16 5.926412523639964" Properties=species:S:1:pos:R:3:forces:R:3 cutoff=-1.0 nneightol=1.2 n_minim_iter=2 energy=-650.4731129346742 stress="-0.25806508723883426 -3.4095590947949037e-17 6.231630190438943e-17 -3.4095590947949037e-17 -0.258065087238835 -1.3329570545987115e-16 6.231630190438943e-17 -1.3329570545987115e-16 -0.2572017318501419" free_energy=-650.4731129346742 pbc="T T T"
Si       1.72481840       0.99582437       0.40210458       0.00000000       0.00000000       0.09846042
Si       1.72481840      -0.99582437       3.36531084      -0.00000000      -0.00000000       0.09846042
Si       1.72481840       0.99582437       2.56110168       0.00000000       0.00000000      -0.09846042
Si       1.72481840      -0.99582437      -0.40210458      -0.00000000      -0.00000000      -0.09846042
4
Lattice="1.7219547329131466 -2.982513085739266 3.0619188127197496e-16 1.7219547329131466 2.982513085739266 -3.061918812719759e-16 2.921110648819223e-31 5.829961968067923e-16 5.946140559470008" Properties=species:S:1:pos:R:3:forces:R:3 cutoff=-1.0 nneightol=1.2 n_minim_iter=3 energy=-650.4740811665511 stress="-0.2568814111322146 -1.1001673128293702e-17 1.782915037860497e-16 -1.1001673128293702e-17 -0.2568814111322139 -2.6928417871743207e-16 1.782915037860497e-16 -2.6928417871743207e-16 -0.25698774134756963" free_energy=-650.4740811665511 pbc="T T T"
Si       1.72195473       0.99417103       0.40862932       0.00000000      -0.00000000       0.00211336
Si       1.72195473      -0.99417103       3.38169960       0.00000000       0.00000000       0.00211336
Si       1.72195473       0.99417103       2.56444096      -0.00000000      -0.00000000      -0.00211336
Si       1.72195473      -0.99417103      -0.40862932      -0.00000000       0.00000000      -0.00211336
