4
Lattice="2.061591405201312 -3.5707810582559905 -5.808467166226282e-17 2.061591405201313 3.5707810582559905 5.808467166226276e-17 -9.132204854593034e-32 -5.324179079339428e-17 6.775607927100634" Properties=species:S:1:pos:R:3:forces:R:3 cutoff=-1.0 nneightol=1.2 n_minim_iter=3 energy=-651.9866344427209 stress="0.06970833079364129 1.2903287464224426e-16 7.727073548853295e-18 1.2903287464224426e-16 0.06970833079364144 5.282891822640803e-17 7.727073548853295e-18 5.282891822640803e-17 0.06979419185649598" free_energy=-651.9866344427209 pbc="T T T"
Si       2.06159141       1.19026035       0.43008321       0.00000000      -0.00000000       0.00142841
Si       2.06159141      -1.19026035       3.81788717      -0.00000000       0.00000000       0.00142841
Si       2.06159141       1.19026035       2.95772076       0.00000000      -0.00000000      -0.00142841
Si       2.06159141      -1.19026035      -0.43008321      -0.00000000       0.00000000      -0.00142841
