4
Lattice="1.9568845398934307 -3.3894234476414673 -8.37043126767769e-18 1.9568845398934307 3.3894234476414673 8.37043126767769e-18 1.0504679001460618e-33 -1.5918358031144822e-17 6.445791648401318" Properties=species:S:1:pos:R:3:forces:R:3 cutoff=-1.0 nneightol=1.2 n_minim_iter=1 energy=-652.643516649048 stress="0.012911633105198451 -3.6656670146886414e-17 -7.761623001404569e-17 -3.6656670146886414e-17 0.012911633105198278 -1.9184549635089218e-16 -7.761623001404569e-17 -1.9184549635089218e-16 0.012935746510546063" free_energy=-652.643516649048 pbc="T T T"
Si       1.95688454       1.12980782       0.40359446       0.00000000       0.00000000      -0.00969151
Si       1.95688454      -1.12980782       3.62649028      -0.00000000      -0.00000000      -0.00969151
Si       1.95688454       1.12980782       2.81930137       0.00000000       0.00000000       0.00969151
Si       1.95688454      -1.12980782      -0.40359446      -0.00000000      -0.00000000       0.00969151
