4
Lattice="1.892011686491566 -3.27706036951747 -8.101490292830274e-18 1.892011686491565 3.27706036951747 8.101490292830274e-18 0.0 -1.542317615076407e-17 6.238689118776777" Properties=species:S:1:pos:R:3:forces:R:3 cutoff=-1.0 nneightol=1.2 n_minim_iter=1 energy=-652.5967493367816 stress="-0.0308091531570868 -1.6433757947641208e-16 -1.6461825523336386e-16 -1.6433757947641208e-16 -0.03080915315708675 -4.1602364221545477e-17 -1.6461825523336386e-16 -4.1602364221545477e-17 -0.03153009012240269" free_energy=-652.5967493367816 pbc="T T T"
Si       1.89201169       1.09235346       0.39166605       0.00000000       0.00000000       0.03048112
Si       1.89201169      -1.09235346       3.51101060       0.00000000       0.00000000       0.03048112
Si       1.89201169       1.09235346       2.72767851      -0.00000000      -0.00000000      -0.03048112
Si       1.89201169      -1.09235346      -0.39166605      -0.00000000      -0.00000000      -0.03048112
4
Lattice="1.8908389343930387 -3.2750291032981376 -8.06874420831076e-18 1.8908389343930379 3.2750291032981376 8.06874420831076e-18 -2.1047657514763645e-34 -1.5498484339508415e-17 6.2464303436413395" Properties=species:S:1:pos:R:3:forces:R:3 cutoff=-1.0 nneightol=1.2 n_minim_iter=2 energy=-652.5968456893892 stress="-0.03129728016748817 9.082653486503979e-17 -1.542260733786218e-16 9.082653486503979e-17 -0.03129728016748993 -2.7303789513158415e-16 -1.542260733786218e-16 -2.7303789513158415e-16 -0.030169609937377148" free_energy=-652.5968456893892 pbc="T T T"
Si       1.89083893       1.09167637       0.39316988      -0.00000000       0.00000000       0.02649851
Si       1.89083893      -1.09167637       3.51638505      -0.00000000      -0.00000000       0.02649851
Si       1.89083893       1.09167637       2.73004529       0.00000000       0.00000000      -0.02649851
Si       1.89083893      -1.09167637      -0.39316988       0.00000000      -0.00000000      -0.02649851
4
Lattice="1.8909272086794031 -3.2751819988471227 -8.083118946160172e-18 1.8909272086794022 3.2751819988471227 8.083118946160174e-18 -2.0866851635642145e-34 -1.5470526428946766e-17 6.245847152170108" Properties=species:S:1:pos:R:3:forces:R:3 cutoff=-1.0 nneightol=1.2 n_minim_iter=3 energy=-652.5968966627636 stress="-0.030893516895465514 -7.022436753101583e-16 -1.507570188558644e-16 -7.022436753101583e-16 -0.030893516895467 -1.0208721638974727e-16 -1.507570188558644e-16 -1.0208721638974727e-16 -0.030841171731975734" free_energy=-652.5968966627636 pbc="T T T"
Si       1.89092721       1.09172733       0.39397908      -0.00000000       0.00000000       0.00108231
Si       1.89092721      -1.09172733       3.51690266       0.00000000      -0.00000000       0.00108231
Si       1.89092721       1.09172733       2.72894449      -0.00000000       0.00000000      -0.00108231
Si       1.89092721      -1.09172733      -0.39397908       0.00000000      -0.00000000      -0.00108231
