4
Lattice="1.8741924619349766 -3.2461965672339783 -8.011583168448488e-18 1.8741924619349757 3.2461965672339783 8.01158316844849e-18 -2.068217954679962e-34 -1.5333611935039733e-17 6.190571269620953" Properties=species:S:1:pos:R:3:forces:R:3 cutoff=-1.0 nneightol=1.2 n_minim_iter=3 energy=-652.5968966627636 stress="-0.030893516895465514 -7.022436753101583e-16 -1.507570188558644e-16 -7.022436753101583e-16 -0.030893516895467 -1.0208721638974727e-16 -1.507570188558644e-16 -1.0208721638974727e-16 -0.030841171731975734" free_energy=-652.5968966627636 pbc="T T T"
Si       1.87419246       1.08206552       0.39049236      -0.00000000       0.00000000       0.00108231
Si       1.87419246      -1.08206552       3.48577800       0.00000000      -0.00000000       0.00108231
Si       1.87419246       1.08206552       2.70479327      -0.00000000       0.00000000      -0.00108231
Si       1.87419246      -1.08206552      -0.39049236       0.00000000      -0.00000000      -0.00108231
