4
Lattice="1.7937667352684663 -3.106895122411935 9.759230130675538e-17 1.7937667352684665 3.106895122411935 -9.759230130675519e-17 -3.106384013144842e-31 1.893338871077208e-16 6.027530066263043" Properties=species:S:1:pos:R:3:forces:R:3 cutoff=-1.0 nneightol=1.2 n_minim_iter=1 energy=-651.7199127581475 stress="-0.1533649616666757 4.359006248847524e-17 2.590463223611857e-16 4.359006248847524e-17 -0.15336496166667624 -2.0786664898065553e-16 2.590463223611857e-16 -2.0786664898065553e-16 -0.15795499387536446" free_energy=-651.7199127581475 pbc="T T T"
Si       1.79376674       1.03563171       0.39410914      -0.00000000       0.00000000       0.05569750
Si       1.79376674      -1.03563171       3.40787417      -0.00000000      -0.00000000       0.05569750
Si       1.79376674       1.03563171       2.61965590      -0.00000000       0.00000000      -0.05569750
Si       1.79376674      -1.03563171      -0.39410914       0.00000000      -0.00000000      -0.05569750
4
Lattice="1.7918116222536604 -3.103508767335752 1.6493277384024075e-16 1.7918116222536606 3.103508767335752 -1.6493277384024028e-16 -2.231631714428968e-31 5.129575470440854e-17 6.040690971784649" Properties=species:S:1:pos:R:3:forces:R:3 cutoff=-1.0 nneightol=1.2 n_minim_iter=2 energy=-651.7203203076449 stress="-0.1550500347444937 3.677344077728411e-16 -1.171041831712663e-16 3.677344077728411e-16 -0.15505003474449391 -3.3420765299316772e-16 -1.171041831712663e-16 -3.3420765299316772e-16 -0.1534602300011967" free_energy=-651.7203203076449 pbc="T T T"
Si       1.79181162       1.03450292       0.39556186       0.00000000       0.00000000       0.10298047
Si       1.79181162      -1.03450292       3.41590735      -0.00000000      -0.00000000       0.10298047
Si       1.79181162       1.03450292       2.62478362       0.00000000       0.00000000      -0.10298047
Si       1.79181162      -1.03450292      -0.39556186      -0.00000000      -0.00000000      -0.10298047
4
Lattice="1.7901178154846487 -3.100575007953619 1.0841152839934167e-16 1.7901178154846489 3.100575007953619 -1.084115283993411e-16 -4.143672711987812e-31 1.6481617682684288e-16 6.052127765283289" Properties=species:S:1:pos:R:3:forces:R:3 cutoff=-1.0 nneightol=1.2 n_minim_iter=3 energy=-651.7211065569263 stress="-0.15379650554958882 -1.309219839746886e-16 -2.398043758722914e-16 -1.309219839746886e-16 -0.15379650554958924 -1.152629799819997e-16 -2.398043758722914e-16 -1.152629799819997e-16 -0.15381443124884908" free_energy=-651.7211065569263 pbc="T T T"
Si       1.79011782       1.03352500       0.40045853       0.00000000      -0.00000000       0.00357172
Si       1.79011782      -1.03352500       3.42652241       0.00000000       0.00000000       0.00357172
Si       1.79011782       1.03352500       2.62560536      -0.00000000      -0.00000000      -0.00357172
Si       1.79011782      -1.03352500      -0.40045853      -0.00000000       0.00000000      -0.00357172
