4
Lattice="1.892011686491565 -3.27706036951747 -8.101490292830275e-18 1.892011686491565 3.27706036951747 8.101490292830277e-18 1.973483607046059e-33 -1.5390647128482604e-17 6.238689118776775" Properties=species:S:1:pos:R:3:forces:R:3 cutoff=-1.0 nneightol=1.2 n_minim_iter=2 energy=-652.6426632465862 stress="-0.014543245128550335 4.9596377149022095e-17 1.0081108635951552e-16 4.9596377149022095e-17 -0.014543245128549985 -4.0541367304659035e-17 1.0081108635951552e-16 -4.0541367304659035e-17 -0.01422169587714554" free_energy=-652.6426632465862 pbc="T T T"
Si       1.89201169       1.09235346       0.39166605       0.00000000      -0.00000000       0.00446951
Si       1.89201169      -1.09235346       3.51101060       0.00000000       0.00000000       0.00446951
Si       1.89201169       1.09235346       2.72767851      -0.00000000      -0.00000000      -0.00446951
Si       1.89201169      -1.09235346      -0.39166605      -0.00000000       0.00000000      -0.00446951
