4
Lattice="1.8529620913557836 -3.2094244867273014 3.412687046603279e-18 1.8529620913557836 3.2094244867273014 -3.412687046603333e-18 1.0412090439372826e-31 -3.897041600748375e-17 6.1620725785247155" Properties=species:S:1:pos:R:3:forces:R:3 cutoff=-1.0 nneightol=1.2 n_minim_iter=3 energy=-652.3931975163742 stress="-0.07098441124564135 -2.4539222128206653e-16 2.915049248681024e-16 -2.4539222128206653e-16 -0.07098441124563941 -1.0935405533318551e-16 2.915049248681024e-16 -1.0935405533318551e-16 -0.07098060879094223" free_energy=-652.3931975163742 pbc="T T T"
Si       1.85296209       1.06980816       0.39446349      -0.00000000      -0.00000000       0.00230734
Si       1.85296209      -1.06980816       3.47549978       0.00000000       0.00000000       0.00230734
Si       1.85296209       1.06980816       2.68657280      -0.00000000      -0.00000000      -0.00230734
Si       1.85296209      -1.06980816      -0.39446349       0.00000000       0.00000000      -0.00230734
