4
Lattice="1.8741924619349757 -3.2461965672339765 -8.011583168448483e-18 1.8741924619349766 3.2461965672339765 8.011583168448483e-18 -2.8876507071883242e-33 -1.527827275999988e-17 6.190571269620951" Properties=species:S:1:pos:R:3:forces:R:3 cutoff=-1.0 nneightol=1.2 n_minim_iter=1 energy=-652.5150954377983 stress="-0.049309967514328756 2.0006570069237281e-16 -5.069479823246424e-17 2.0006570069237281e-16 -0.049309967514328853 1.7054699272507844e-16 -5.069479823246424e-17 1.7054699272507844e-16 -0.05121978061922131" free_energy=-652.5150954377983 pbc="T T T"
Si       1.87419246       1.08206552       0.39049236       0.00000000      -0.00000000       0.03510323
Si       1.87419246      -1.08206552       3.48577800      -0.00000000       0.00000000       0.03510323
Si       1.87419246       1.08206552       2.70479327       0.00000000      -0.00000000      -0.03510323
Si       1.87419246      -1.08206552      -0.39049236      -0.00000000       0.00000000      -0.03510323
4
Lattice="1.8729187252846349 -3.2439903906401235 -8.417509562969214e-18 1.8729187252846358 3.2439903906401235 8.417509562969214e-18 -2.487026633120175e-33 -1.4463500813004647e-17 6.198994314016335" Properties=species:S:1:pos:R:3:forces:R:3 cutoff=-1.0 nneightol=1.2 n_minim_iter=2 energy=-652.5152288472515 stress="-0.05010952442037569 3.441567102097347e-16 -3.466117367506853e-16 3.441567102097347e-16 -0.05010952442037576 6.097484543272952e-17 -3.466117367506853e-16 6.097484543272952e-17 -0.04915546367631061" free_energy=-652.5152288472515 pbc="T T T"
Si       1.87291873       1.08133013       0.39152202       0.00000000      -0.00000000       0.04980086
Si       1.87291873      -1.08133013       3.49101918      -0.00000000       0.00000000       0.04980086
Si       1.87291873       1.08133013       2.70797514      -0.00000000      -0.00000000      -0.04980086
Si       1.87291873      -1.08133013      -0.39152202      -0.00000000       0.00000000      -0.04980086
4
Lattice="1.872404291725041 -3.243099365577789 -8.445208357736274e-18 1.8724042917250419 3.243099365577789 8.445208357736273e-18 -2.495874941480069e-33 -1.4414360309130942e-17 6.202401066288479" Properties=species:S:1:pos:R:3:forces:R:3 cutoff=-1.0 nneightol=1.2 n_minim_iter=3 energy=-652.5154164712329 stress="-0.049596425002510616 -9.007867335841032e-17 9.551967139281244e-17 -9.007867335841032e-17 -0.04959642500251047 1.3837393553679236e-16 9.551967139281244e-17 1.3837393553679236e-16 -0.049576679746726686" free_energy=-652.5154164712329 pbc="T T T"
Si       1.87240429       1.08103312       0.39374709      -0.00000000       0.00000000       0.00181855
Si       1.87240429      -1.08103312       3.49494763       0.00000000      -0.00000000       0.00181855
Si       1.87240429       1.08103312       2.70745344      -0.00000000      -0.00000000      -0.00181855
Si       1.87240429      -1.08103312      -0.39374709       0.00000000      -0.00000000      -0.00181855
