4
Lattice="1.956789765366883 -3.3892592933462233 -1.1120821579277344e-17 1.956789765366883 3.3892592933462233 1.1120821579277368e-17 9.645617509402235e-34 -1.0666302175870047e-17 6.446416050323799" Properties=species:S:1:pos:R:3:forces:R:3 cutoff=-1.0 nneightol=1.2 n_minim_iter=2 energy=-652.6052629937396 stress="0.024375087700326703 -1.028813510988019e-16 1.8225291843410812e-16 -1.028813510988019e-16 0.02437508770032677 -4.333034075743876e-17 1.8225291843410812e-16 -4.333034075743876e-17 0.024736253261254705" free_energy=-652.6052629937396 pbc="T T T"
Si       1.95678977       1.12975310       0.40322787      -0.00000000       0.00000000      -0.00183503
Si       1.95678977      -1.12975310       3.62643589      -0.00000000       0.00000000      -0.00183503
Si       1.95678977       1.12975310       2.81998016       0.00000000      -0.00000000       0.00183503
Si       1.95678977      -1.12975310      -0.40322787       0.00000000      -0.00000000       0.00183503
