4
Lattice="1.8326922772040257 -3.1743161387564776 4.3581912543248694e-17 1.8326922772040253 3.1743161387564776 -4.3581912543248737e-17 -2.763419806272249e-32 -7.384834321697726e-17 6.1241570892349975" Properties=species:S:1:pos:R:3:forces:R:3 cutoff=-1.0 nneightol=1.2 n_minim_iter=3 energy=-652.2243740213473 stress="-0.09543861640215737 2.462367365723825e-16 4.3369069437941514e-17 2.462367365723825e-16 -0.09543861640215805 -6.195894627409468e-17 4.3369069437941514e-17 -6.195894627409468e-17 -0.09544738060953067" free_energy=-652.2243740213473 pbc="T T T"
Si       1.83269228       1.05810538       0.39596929       0.00000000      -0.00000000       0.00277130
Si       1.83269228      -1.05810538       3.45804783       0.00000000      -0.00000000       0.00277130
Si       1.83269228       1.05810538       2.66610926      -0.00000000       0.00000000      -0.00277130
Si       1.83269228      -1.05810538      -0.39596929       0.00000000       0.00000000      -0.00277130
