4
Lattice="2.017646244325087 -3.4946658068715792 -2.5284791919534737e-17 2.017646244325087 3.4946658068715792 2.528479191953471e-17 2.1827005094645707e-32 4.312718675047564e-17 6.640872808448215" Properties=species:S:1:pos:R:3:forces:R:3 cutoff=-1.0 nneightol=1.2 n_minim_iter=3 energy=-652.2512360847664 stress="0.059396091530324616 -1.8755569643793437e-16 -7.715177357976429e-19 -1.8755569643793437e-16 0.05939609153032491 2.9417616115610824e-17 -7.715177357976429e-19 2.9417616115610824e-17 0.059452002927511044" free_energy=-652.2512360847664 pbc="T T T"
Si       2.01764624       1.16488860       0.41817563      -0.00000000       0.00000000       0.00085825
Si       2.01764624      -1.16488860       3.73861204      -0.00000000       0.00000000       0.00085825
Si       2.01764624       1.16488860       2.90226077       0.00000000      -0.00000000      -0.00085825
Si       2.01764624      -1.16488860      -0.41817563       0.00000000      -0.00000000      -0.00085825
