4
Lattice="1.7937667352684663 -3.106895122411936 9.759230130675542e-17 1.7937667352684656 3.106895122411936 -9.759230130675526e-17 -1.9631263068798917e-31 -2.5346899963348295e-17 6.027530066263044" Properties=species:S:1:pos:R:3:forces:R:3 cutoff=-1.0 nneightol=1.2 n_minim_iter=3 energy=-652.0024804488037 stress="-0.12312693956790002 -8.799484282542867e-17 -2.3379706176678757e-16 -8.799484282542867e-17 -0.12312693956790054 3.08336660536099e-16 -2.3379706176678757e-16 3.08336660536099e-16 -0.12314228554563002" free_energy=-652.0024804488037 pbc="T T T"
Si       1.79376674       1.03563171       0.39410914      -0.00000000       0.00000000       0.00321199
Si       1.79376674      -1.03563171       3.40787417       0.00000000      -0.00000000       0.00321199
Si       1.79376674       1.03563171       2.61965590      -0.00000000       0.00000000      -0.00321199
Si       1.79376674      -1.03563171      -0.39410914       0.00000000      -0.00000000      -0.00321199
