4
Lattice="1.7264620909471933 -2.990320058862138 2.998926851207947e-16 1.7264620909471933 2.990320058862138 -2.998926851207952e-16 1.459677918100686e-30 5.88587702611945e-16 5.915133335242237" Properties=species:S:1:pos:R:3:forces:R:3 cutoff=-1.0 nneightol=1.2 n_minim_iter=3 energy=-650.9600495360999 stress="-0.22101939157214234 2.591323496397123e-16 -1.430588966407771e-16 2.591323496397123e-16 -0.22101939157214262 -5.565862254401685e-16 -1.430588966407771e-16 -5.565862254401685e-16 -0.22106480666144968" free_energy=-650.9600495360999 pbc="T T T"
Si       1.72646209       0.99677335       0.40107523       0.00000000      -0.00000000       0.00349764
Si       1.72646209      -0.99677335       3.35864190       0.00000000       0.00000000       0.00349764
Si       1.72646209       0.99677335       2.55649144      -0.00000000      -0.00000000      -0.00349764
Si       1.72646209      -0.99677335      -0.40107523      -0.00000000       0.00000000      -0.00349764
