4
Lattice="1.7680097124568868 -3.0622826502505687 3.059093110091988e-16 1.768009712456887 3.0622826502505687 -3.059093110091996e-16 -1.897259388469041e-30 -1.8989347820928893e-16 6.016418842978204" Properties=species:S:1:pos:R:3:forces:R:3 cutoff=-1.0 nneightol=1.2 n_minim_iter=3 energy=-651.3748535615217 stress="-0.1867218571645395 -5.498215210416026e-16 -2.1599727155629106e-16 -5.498215210416026e-16 -0.18672185716453715 1.7845785643915707e-16 -2.1599727155629106e-16 1.7845785643915707e-16 -0.1867287469960039" free_energy=-651.3748535615217 pbc="T T T"
Si       1.76800971       1.02076088       0.40298207       0.00000000      -0.00000000       0.00385331
Si       1.76800971      -1.02076088       3.41119149       0.00000000       0.00000000       0.00385331
Si       1.76800971       1.02076088       2.60522736      -0.00000000      -0.00000000      -0.00385331
Si       1.76800971      -1.02076088      -0.40298207      -0.00000000       0.00000000      -0.00385331
