4
Lattice="2.002720306130291 -3.4688133235675602 5.219977135739243e-18 2.002720306130291 3.4688133235675602 -5.2199771357392155e-18 -7.647347744559869e-33 -5.157761832038888e-17 6.593701591880329" Properties=species:S:1:pos:R:3:forces:R:3 cutoff=-1.0 nneightol=1.2 n_minim_iter=2 energy=-652.4638144285569 stress="0.04426917464052318 -1.1416714063674147e-16 -1.0666956852816967e-16 -1.1416714063674147e-16 0.04426917464052183 8.879166361170022e-18 -1.0666956852816967e-16 8.879166361170022e-18 0.04417736684224927" free_energy=-652.4638144285569 pbc="T T T"
Si       2.00272031       1.15627111       0.41260886       0.00000000       0.00000000       0.00710366
Si       2.00272031      -1.15627111       3.70945966       0.00000000      -0.00000000       0.00710366
Si       2.00272031       1.15627111       2.88424193      -0.00000000       0.00000000      -0.00710366
Si       2.00272031      -1.15627111      -0.41260886      -0.00000000      -0.00000000      -0.00710366
