4
Lattice="2.0326038567482905 -3.5205731515484913 -4.231296658076429e-17 2.0326038567482905 3.5205731515484913 4.2312966580764305e-17 -9.682096852221019e-33 -1.8216638075746417e-17 6.685744022391403" Properties=species:S:1:pos:R:3:forces:R:3 cutoff=-1.0 nneightol=1.2 n_minim_iter=3 energy=-652.1241863275286 stress="0.06517459865790463 1.6863030428803995e-18 -1.2648146677324347e-16 1.6863030428803995e-18 0.06517459865790501 -9.305080539779794e-18 -1.2648146677324347e-16 -9.305080539779794e-18 0.06524652569715648" free_energy=-652.1241863275286 pbc="T T T"
Si       2.03260386       1.17352438       0.42253642      -0.00000000      -0.00000000       0.00112638
Si       2.03260386      -1.17352438       3.76540843       0.00000000       0.00000000       0.00112638
Si       2.03260386       1.17352438       2.92033559      -0.00000000      -0.00000000      -0.00112638
Si       2.03260386      -1.17352438      -0.42253642       0.00000000       0.00000000      -0.00112638
