4
Lattice="1.855381492303788 -3.2136150120931246 -8.368429486538544e-18 1.8553814923037888 3.2136150120931246 8.368429486538543e-18 -2.4731839133206518e-33 -1.4283313416420637e-17 6.146012480902188" Properties=species:S:1:pos:R:3:forces:R:3 cutoff=-1.0 nneightol=1.2 n_minim_iter=3 energy=-652.5154164712329 stress="-0.049596425002510616 -9.007867335841032e-17 9.551967139281244e-17 -9.007867335841032e-17 -0.04959642500251047 1.3837393553679236e-16 9.551967139281244e-17 1.3837393553679236e-16 -0.049576679746726686" free_energy=-652.5154164712329 pbc="T T T"
Si       1.85538149       1.07120500       0.39016738      -0.00000000       0.00000000       0.00181855
Si       1.85538149      -1.07120500       3.46317362       0.00000000      -0.00000000       0.00181855
Si       1.85538149       1.07120500       2.68283886      -0.00000000      -0.00000000      -0.00181855
Si       1.85538149      -1.07120500      -0.39016738       0.00000000      -0.00000000      -0.00181855
