4
Lattice="1.855381492303788 -3.213615012093124 -8.368429486538543e-18 1.855381492303788 3.213615012093124 8.368429486538543e-18 0.0 -1.60045530893622e-17 6.146012480902188" Properties=species:S:1:pos:R:3:forces:R:3 cutoff=-1.0 nneightol=1.2 n_minim_iter=1 energy=-652.3926224264969 stress="-0.07063497539153923 -3.21664761205443e-16 -3.9784633000931567e-16 -3.21664761205443e-16 -0.07063497539153854 -2.539105955281886e-16 -3.9784633000931567e-16 -2.539105955281886e-16 -0.07347791878256854" free_energy=-652.3926224264969 pbc="T T T"
Si       1.85538149       1.07120500       0.39016738       0.00000000       0.00000000       0.04404754
Si       1.85538149      -1.07120500       3.46317362       0.00000000       0.00000000       0.04404754
Si       1.85538149       1.07120500       2.68283886      -0.00000000      -0.00000000      -0.04404754
Si       1.85538149      -1.07120500      -0.39016738      -0.00000000      -0.00000000      -0.04404754
4
Lattice="1.8537912241414367 -3.210860586838274 -9.206359915179998e-18 1.8537912241414367 3.210860586838274 9.206359915179999e-18 4.3991604318422635e-34 -1.4316299826714125e-17 6.156561673345801" Properties=species:S:1:pos:R:3:forces:R:3 cutoff=-1.0 nneightol=1.2 n_minim_iter=2 energy=-652.3928509224959 stress="-0.07171960206964852 1.8142827219741826e-16 -1.4516041815579745e-16 1.8142827219741826e-16 -0.07171960206964767 -3.399057270371179e-17 -1.4516041815579745e-16 -3.399057270371179e-17 -0.07057597714679373" free_energy=-652.3928509224959 pbc="T T T"
Si       1.85379122       1.07028686       0.39138182      -0.00000000      -0.00000000       0.06791043
Si       1.85379122      -1.07028686       3.46966265      -0.00000000       0.00000000       0.06791043
Si       1.85379122       1.07028686       2.68689902      -0.00000000      -0.00000000      -0.06791043
Si       1.85379122      -1.07028686      -0.39138182       0.00000000       0.00000000      -0.06791043
4
Lattice="1.8529620913557836 -3.2094244867273014 3.412687046603279e-18 1.8529620913557836 3.2094244867273014 -3.412687046603333e-18 1.0412090439372826e-31 -3.897041600748375e-17 6.1620725785247155" Properties=species:S:1:pos:R:3:forces:R:3 cutoff=-1.0 nneightol=1.2 n_minim_iter=3 energy=-652.3931975163742 stress="-0.07098441124564135 -2.4539222128206653e-16 2.915049248681024e-16 -2.4539222128206653e-16 -0.07098441124563941 -1.0935405533318551e-16 2.915049248681024e-16 -1.0935405533318551e-16 -0.07098060879094223" free_energy=-652.3931975163742 pbc="T T T"
Si       1.85296209       1.06980816       0.39446349      -0.00000000      -0.00000000       0.00230734
Si       1.85296209      -1.06980816       3.47549978       0.00000000       0.00000000       0.00230734
Si       1.85296209       1.06980816       2.68657280      -0.00000000      -0.00000000      -0.00230734
Si       1.85296209      -1.06980816      -0.39446349       0.00000000       0.00000000      -0.00230734
