4
Lattice="1.972198193203112 -3.415947473223331 -1.1208390708990036e-17 1.972198193203112 3.415947473223331 1.1208390708990059e-17 -3.9087086341582415e-32 -2.1318507529530756e-17 6.497177321806174" Properties=species:S:1:pos:R:3:forces:R:3 cutoff=-1.0 nneightol=1.2 n_minim_iter=1 energy=-652.544580821381 stress="0.03481275889612041 7.715608588518942e-17 2.431589531086058e-18 7.715608588518942e-17 0.03481275889612024 -2.7656247434534095e-16 2.431589531086058e-18 -2.7656247434534095e-16 0.03515713577629796" free_energy=-652.544580821381 pbc="T T T"
Si       1.97219819       1.13864916       0.40640302       0.00000000       0.00000000       0.00290129
Si       1.97219819      -1.13864916       3.65499168      -0.00000000       0.00000000       0.00290129
Si       1.97219819       1.13864916       2.84218564       0.00000000      -0.00000000      -0.00290129
Si       1.97219819      -1.13864916      -0.40640302       0.00000000      -0.00000000      -0.00290129
