4
Lattice="1.7718500325145672 -3.068934279707797 1.0730521111948274e-16 1.7718500325145674 3.068934279707797 -1.0730521111948216e-16 -9.584617119989893e-31 2.0945303561755325e-16 5.990367050113004" Properties=species:S:1:pos:R:3:forces:R:3 cutoff=-1.0 nneightol=1.2 n_minim_iter=1 energy=-651.3736417796888 stress="-0.18621142052558676 -2.1947613144455077e-16 -1.8431345056507882e-16 -2.1947613144455077e-16 -0.1862114205255867 -1.5777204441483792e-16 -1.8431345056507882e-16 -1.5777204441483792e-16 -0.19093051229167424" free_energy=-651.3736417796888 pbc="T T T"
Si       1.77185003       1.02297809       0.39637193       0.00000000       0.00000000       0.05112019
Si       1.77185003      -1.02297809       3.39155545       0.00000000       0.00000000       0.05112019
Si       1.77185003       1.02297809       2.59881160      -0.00000000      -0.00000000      -0.05112019
Si       1.77185003      -1.02297809      -0.39637193       0.00000000      -0.00000000      -0.05112019
4
Lattice="1.7700013216720965 -3.065732218600134 1.0719325113211968e-16 1.7700013216720967 3.065732218600134 -1.0719325113211884e-16 -8.987156438082624e-31 2.098907983601768e-16 6.002887085936059" Properties=species:S:1:pos:R:3:forces:R:3 cutoff=-1.0 nneightol=1.2 n_minim_iter=2 energy=-651.3740248787497 stress="-0.1879459459450409 4.773349078424479e-17 1.6804012578175311e-16 4.773349078424479e-17 -0.18794594594504152 1.4664853643843727e-16 1.6804012578175311e-16 1.4664853643843727e-16 -0.18648400653221073" free_energy=-651.3740248787497 pbc="T T T"
Si       1.77000132       1.02191074       0.39772219       0.00000000       0.00000000       0.10305176
Si       1.77000132      -1.02191074       3.39916573      -0.00000000       0.00000000       0.10305176
Si       1.77000132       1.02191074       2.60372135       0.00000000      -0.00000000      -0.10305176
Si       1.77000132      -1.02191074      -0.39772219      -0.00000000      -0.00000000      -0.10305176
4
Lattice="1.7680097124568868 -3.0622826502505687 3.059093110091988e-16 1.768009712456887 3.0622826502505687 -3.059093110091996e-16 -1.897259388469041e-30 -1.8989347820928893e-16 6.016418842978204" Properties=species:S:1:pos:R:3:forces:R:3 cutoff=-1.0 nneightol=1.2 n_minim_iter=3 energy=-651.3748535615217 stress="-0.1867218571645395 -5.498215210416026e-16 -2.1599727155629106e-16 -5.498215210416026e-16 -0.18672185716453715 1.7845785643915707e-16 -2.1599727155629106e-16 1.7845785643915707e-16 -0.1867287469960039" free_energy=-651.3748535615217 pbc="T T T"
Si       1.76800971       1.02076088       0.40298207       0.00000000      -0.00000000       0.00385331
Si       1.76800971      -1.02076088       3.41119149       0.00000000       0.00000000       0.00385331
Si       1.76800971       1.02076088       2.60522736      -0.00000000      -0.00000000      -0.00385331
Si       1.76800971      -1.02076088      -0.40298207      -0.00000000       0.00000000      -0.00385331
