4
Lattice="1.8117055926638403 -3.1379661348504566 9.856828906570236e-17 1.8117055926638397 3.1379661348504566 -9.85682890657022e-17 -1.9827588723499806e-31 -2.5600385778932485e-17 6.087809365783469" Properties=species:S:1:pos:R:3:forces:R:3 cutoff=-1.0 nneightol=1.2 n_minim_iter=3 energy=-652.0024804488037 stress="-0.12312693956790002 -8.799484282542867e-17 -2.3379706176678757e-16 -8.799484282542867e-17 -0.12312693956790054 3.08336660536099e-16 -2.3379706176678757e-16 3.08336660536099e-16 -0.12314228554563002" free_energy=-652.0024804488037 pbc="T T T"
Si       1.81170559       1.04598871       0.39805049      -0.00000000       0.00000000       0.00321199
Si       1.81170559      -1.04598871       3.44195517       0.00000000      -0.00000000       0.00321199
Si       1.81170559       1.04598871       2.64585419      -0.00000000       0.00000000      -0.00321199
Si       1.81170559      -1.04598871      -0.39805049       0.00000000      -0.00000000      -0.00321199
