4
Lattice="2.0474704729567597 -3.5463228861581877 -5.768681895928757e-17 2.0474704729567605 3.5463228861581877 5.768681895928751e-17 -9.069653543179078e-32 -5.287710954837388e-17 6.729198197115901" Properties=species:S:1:pos:R:3:forces:R:3 cutoff=-1.0 nneightol=1.2 n_minim_iter=3 energy=-651.9866344427209 stress="0.06970833079364129 1.2903287464224426e-16 7.727073548853295e-18 1.2903287464224426e-16 0.06970833079364144 5.282891822640803e-17 7.727073548853295e-18 5.282891822640803e-17 0.06979419185649598" free_energy=-651.9866344427209 pbc="T T T"
Si       2.04747047       1.18210763       0.42713734       0.00000000      -0.00000000       0.00142841
Si       2.04747047      -1.18210763       3.79173644      -0.00000000       0.00000000       0.00142841
Si       2.04747047       1.18210763       2.93746176       0.00000000      -0.00000000      -0.00142841
Si       2.04747047      -1.18210763      -0.42713734      -0.00000000       0.00000000      -0.00142841
