4
Lattice="2.06220395897404 -3.5718420325127234 -9.259365991885036e-17 2.0622039589740404 3.5718420325127234 9.259365991885048e-17 8.840828906347312e-32 -4.665169862368121e-17 6.771583293395015" Properties=species:S:1:pos:R:3:forces:R:3 cutoff=-1.0 nneightol=1.2 n_minim_iter=3 energy=-651.8410951789332 stress="0.07302874120610041 -1.866565096277684e-17 5.357264060734379e-17 -1.866565096277684e-17 0.07302874120610058 -1.9992063077225315e-17 5.357264060734379e-17 -1.9992063077225315e-17 0.07312555685224906" free_energy=-651.8410951789332 pbc="T T T"
Si       2.06220396       1.19061401       0.43200182       0.00000000      -0.00000000       0.00174929
Si       2.06220396      -1.19061401       3.81779347      -0.00000000       0.00000000       0.00174929
Si       2.06220396       1.19061401       2.95378983       0.00000000      -0.00000000      -0.00174929
Si       2.06220396      -1.19061401      -0.43200182      -0.00000000       0.00000000      -0.00174929
