4
Lattice="2.0026364457994656 -3.4686680732138315 -6.037027736727062e-19 2.0026364457994656 3.4686680732138315 6.037027736726439e-19 8.740252112385331e-32 2.1185837643895128e-17 6.594253825487582" Properties=species:S:1:pos:R:3:forces:R:3 cutoff=-1.0 nneightol=1.2 n_minim_iter=3 energy=-652.3652617566909 stress="0.05239676137101802 -2.3922313961419602e-17 1.0986069282933267e-16 -2.3922313961419602e-17 0.052396761371017904 -1.0602270384507535e-16 1.0986069282933267e-16 -1.0602270384507535e-16 0.05242944433016669" free_energy=-652.3652617566909 pbc="T T T"
Si       2.00263645       1.15622269       0.41400968      -0.00000000       0.00000000       0.00083498
Si       2.00263645      -1.15622269       3.71113659      -0.00000000      -0.00000000       0.00083498
Si       2.00263645       1.15622269       2.88311724       0.00000000       0.00000000      -0.00083498
Si       2.00263645      -1.15622269      -0.41400968       0.00000000      -0.00000000      -0.00083498
