4
Lattice="1.8909272086794031 -3.2751819988471227 -8.083118946160172e-18 1.8909272086794022 3.2751819988471227 8.083118946160174e-18 -2.0866851635642145e-34 -1.5470526428946766e-17 6.245847152170108" Properties=species:S:1:pos:R:3:forces:R:3 cutoff=-1.0 nneightol=1.2 n_minim_iter=3 energy=-652.5968966627636 stress="-0.030893516895465514 -7.022436753101583e-16 -1.507570188558644e-16 -7.022436753101583e-16 -0.030893516895467 -1.0208721638974727e-16 -1.507570188558644e-16 -1.0208721638974727e-16 -0.030841171731975734" free_energy=-652.5968966627636 pbc="T T T"
Si       1.89092721       1.09172733       0.39397908      -0.00000000       0.00000000       0.00108231
Si       1.89092721      -1.09172733       3.51690266       0.00000000      -0.00000000       0.00108231
Si       1.89092721       1.09172733       2.72894449      -0.00000000       0.00000000      -0.00108231
Si       1.89092721      -1.09172733      -0.39397908       0.00000000      -0.00000000      -0.00108231
