4
Lattice="1.872404291725041 -3.243099365577789 -8.445208357736274e-18 1.8724042917250419 3.243099365577789 8.445208357736273e-18 -2.495874941480069e-33 -1.4414360309130942e-17 6.202401066288479" Properties=species:S:1:pos:R:3:forces:R:3 cutoff=-1.0 nneightol=1.2 n_minim_iter=3 energy=-652.5154164712329 stress="-0.049596425002510616 -9.007867335841032e-17 9.551967139281244e-17 -9.007867335841032e-17 -0.04959642500251047 1.3837393553679236e-16 9.551967139281244e-17 1.3837393553679236e-16 -0.049576679746726686" free_energy=-652.5154164712329 pbc="T T T"
Si       1.87240429       1.08103312       0.39374709      -0.00000000       0.00000000       0.00181855
Si       1.87240429      -1.08103312       3.49494763       0.00000000      -0.00000000       0.00181855
Si       1.87240429       1.08103312       2.70745344      -0.00000000      -0.00000000      -0.00181855
Si       1.87240429      -1.08103312      -0.39374709       0.00000000      -0.00000000      -0.00181855
