4
Lattice="1.9091364716972417 -3.3067213675624036 -8.166192379356585e-18 1.9091364716972412 3.3067213675624036 8.166192379356585e-18 3.9869524938386154e-33 -1.5529949400309674e-17 6.288514050805775" Properties=species:S:1:pos:R:3:forces:R:3 cutoff=-1.0 nneightol=1.2 n_minim_iter=1 energy=-652.6569828837688 stress="4.719252926089544e-05 -2.3414693117178118e-17 4.57349188619377e-17 -2.3414693117178118e-17 4.71925292600266e-05 -1.583173338064235e-16 4.57349188619377e-17 -1.583173338064235e-16 0.0001058877083533572" free_energy=-652.6569828837688 pbc="T T T"
Si       1.90913647       1.10224046       0.39374673      -0.00000000       0.00000000       0.00090688
Si       1.90913647      -1.10224046       3.53800376      -0.00000000      -0.00000000       0.00090688
Si       1.90913647       1.10224046       2.75051029      -0.00000000       0.00000000      -0.00090688
Si       1.90913647      -1.10224046      -0.39374673       0.00000000      -0.00000000      -0.00090688
