4
Lattice="2.0173622426297215 -3.4941739015057713 -6.0814192407846905e-19 2.0173622426297215 3.4941739015057713 6.081419240784063e-19 8.804520980118246e-32 2.1341621456517314e-17 6.642742727347401" Properties=species:S:1:pos:R:3:forces:R:3 cutoff=-1.0 nneightol=1.2 n_minim_iter=3 energy=-652.3652617566909 stress="0.05239676137101802 -2.3922313961419602e-17 1.0986069282933267e-16 -2.3922313961419602e-17 0.052396761371017904 -1.0602270384507535e-16 1.0986069282933267e-16 -1.0602270384507535e-16 0.05242944433016669" free_energy=-652.3652617566909 pbc="T T T"
Si       2.01736224       1.16472463       0.41705397      -0.00000000       0.00000000       0.00083498
Si       2.01736224      -1.16472463       3.73842534      -0.00000000      -0.00000000       0.00083498
Si       2.01736224       1.16472463       2.90431739       0.00000000       0.00000000      -0.00083498
Si       2.01736224      -1.16472463      -0.41705397       0.00000000      -0.00000000      -0.00083498
