4
Lattice="1.9193831003487796 -3.3244690489931594 0.0 1.9193831003487798 3.3244690489931594 0.0 0.0 0.0 6.268678969999999" Properties=species:S:1:pos:R:3:forces:R:3 cutoff=-1.0 nneightol=1.2 n_minim_iter=1 energy=-652.6474508378518 stress="-0.006385544739887511 3.7164093771075803e-16 8.283607713240755e-17 3.7164093771075803e-16 -0.006385544739887594 -9.864724821596692e-17 8.283607713240755e-17 -9.864724821596692e-17 -0.017799640892279915" free_energy=-652.6474508378518 pbc="T T T"
Si       1.91938310       1.10815635       0.39179244       0.00000000      -0.00000000      -0.06729425
Si       1.91938310      -1.10815635       3.52613192      -0.00000000       0.00000000      -0.06729425
Si       1.91938310       1.10815635       2.74254705       0.00000000      -0.00000000       0.06729425
Si       1.91938310      -1.10815635      -0.39179244      -0.00000000       0.00000000       0.06729425
4
Lattice="1.9267681896541358 -3.3372603988884704 0.0 1.926768189654136 3.3372603988884704 0.0 0.0 0.0 6.3361435464258395" Properties=species:S:1:pos:R:3:forces:R:3 cutoff=-1.0 nneightol=1.2 n_minim_iter=2 energy=-652.6568897807624 stress="0.000740011317504806 -1.4194948131707015e-16 -1.6435332682768204e-17 -1.4194948131707015e-16 0.0007400113175046564 -8.236103426674508e-18 -1.6435332682768204e-17 -8.236103426674508e-18 -0.00038410460927616014" free_energy=-652.6568897807624 pbc="T T T"
Si       1.92676819       1.11242013       0.39549765       0.00000000       0.00000000       0.01314392
Si       1.92676819      -1.11242013       3.56356942      -0.00000000       0.00000000       0.01314392
Si       1.92676819       1.11242013       2.77257412       0.00000000      -0.00000000      -0.01314392
Si       1.92676819      -1.11242013      -0.39549765      -0.00000000      -0.00000000      -0.01314392
4
Lattice="1.925636591706541 -3.335300413749495 -7.05769713625053e-49 1.9256365917065412 3.335300413749495 -2.524701422711987e-48 -2.893969154677303e-48 8.113862149388683e-49 6.339387752818423" Properties=species:S:1:pos:R:3:forces:R:3 cutoff=-1.0 nneightol=1.2 n_minim_iter=3 energy=-652.6569370809992 stress="-5.827629607040607e-05 -1.7995459821069705e-16 -5.056523225659916e-17 -1.7995459821069705e-16 -5.8276296069985025e-05 8.489316526923748e-18 -5.056523225659916e-17 8.489316526923748e-18 0.00013821350625730313" free_energy=-652.6569370809992 pbc="T T T"
Si       1.92563659       1.11176680       0.39583665       0.00000000      -0.00000000       0.02177752
Si       1.92563659      -1.11176680       3.56553053       0.00000000       0.00000000       0.02177752
Si       1.92563659       1.11176680       2.77385722      -0.00000000      -0.00000000      -0.02177752
Si       1.92563659      -1.11176680      -0.39583665      -0.00000000       0.00000000      -0.02177752
4
Lattice="1.9253163657786472 -3.334745766172482 -8.235400699298698e-18 1.9253163657786474 3.334745766172482 8.235400699298696e-18 -4.001274759035995e-34 1.5847845675682964e-17 6.341809083811466" Properties=species:S:1:pos:R:3:forces:R:3 cutoff=-1.0 nneightol=1.2 n_minim_iter=4 energy=-652.6569828837694 stress="4.719252925647385e-05 3.283189507110723e-16 1.476675158364274e-17 3.283189507110723e-16 4.719252925722684e-05 -1.9319673734391148e-16 1.476675158364274e-17 -1.9319673734391148e-16 0.00010588770834877164" free_energy=-652.6569828837694 pbc="T T T"
Si       1.92531637       1.11158192       0.39708373       0.00000000      -0.00000000       0.00090688
Si       1.92531637      -1.11158192       3.56798827      -0.00000000       0.00000000       0.00090688
Si       1.92531637       1.11158192       2.77382081      -0.00000000      -0.00000000      -0.00090688
Si       1.92531637      -1.11158192      -0.39708373      -0.00000000       0.00000000      -0.00090688
