4
Lattice="1.9253163657786478 -3.334745766172482 -8.235400699298696e-18 1.9253163657786474 3.334745766172482 8.235400699298696e-18 4.020741837876739e-33 -1.5661565416299994e-17 6.341809083811466" Properties=species:S:1:pos:R:3:forces:R:3 cutoff=-1.0 nneightol=1.2 n_minim_iter=1 energy=-652.6569828837688 stress="4.719252926089544e-05 -2.3414693117178118e-17 4.57349188619377e-17 -2.3414693117178118e-17 4.71925292600266e-05 -1.583173338064235e-16 4.57349188619377e-17 -1.583173338064235e-16 0.0001058877083533572" free_energy=-652.6569828837688 pbc="T T T"
Si       1.92531637       1.11158192       0.39708373      -0.00000000       0.00000000       0.00090688
Si       1.92531637      -1.11158192       3.56798827      -0.00000000      -0.00000000       0.00090688
Si       1.92531637       1.11158192       2.77382081      -0.00000000       0.00000000      -0.00090688
Si       1.92531637      -1.11158192      -0.39708373       0.00000000      -0.00000000      -0.00090688
