4
Lattice="2.0469184400404234 -3.5453667370996422 -4.261095503653085e-17 2.0469184400404243 3.5453667370996422 4.2610955036530865e-17 -4.302246931515345e-32 -8.092032906589959e-17 6.73282827806703" Properties=species:S:1:pos:R:3:forces:R:3 cutoff=-1.0 nneightol=1.2 n_minim_iter=1 energy=-651.9864563282498 stress="0.06948574728635566 4.791109055112915e-17 -1.0653984330899183e-16 4.791109055112915e-17 0.06948574728635562 5.1166090480704505e-17 -1.0653984330899183e-16 5.1166090480704505e-17 0.07075399674174579" free_energy=-651.9864563282498 pbc="T T T"
Si       2.04691844       1.18178891       0.42551212      -0.00000000       0.00000000       0.03685585
Si       2.04691844      -1.18178891       3.79192626      -0.00000000      -0.00000000       0.03685585
Si       2.04691844       1.18178891       2.94090201       0.00000000       0.00000000      -0.03685585
Si       2.04691844      -1.18178891      -0.42551212       0.00000000      -0.00000000      -0.03685585
4
Lattice="2.048105241021122 -3.5474223366966844 -5.006480795778751e-17 2.0481052410211227 3.5474223366966844 5.006480795778754e-17 6.004081181237403e-33 -6.752172762773905e-17 6.725027690542231" Properties=species:S:1:pos:R:3:forces:R:3 cutoff=-1.0 nneightol=1.2 n_minim_iter=2 energy=-651.9865732833413 stress="0.06987997174243663 -2.8290579086576214e-17 3.643351328540464e-17 -2.8290579086576214e-17 0.06987997174243656 -1.8384682478194837e-17 3.643351328540464e-17 -1.8384682478194837e-17 0.06964085132533998" free_energy=-651.9865732833413 pbc="T T T"
Si       2.04810524       1.18247411       0.42553564      -0.00000000       0.00000000       0.01967806
Si       2.04810524      -1.18247411       3.78804949       0.00000000      -0.00000000       0.01967806
Si       2.04810524       1.18247411       2.93697820      -0.00000000       0.00000000      -0.01967806
Si       2.04810524      -1.18247411      -0.42553564       0.00000000      -0.00000000      -0.01967806
4
Lattice="2.0474704729567597 -3.5463228861581877 -5.768681895928757e-17 2.0474704729567605 3.5463228861581877 5.768681895928751e-17 -9.069653543179078e-32 -5.287710954837388e-17 6.729198197115901" Properties=species:S:1:pos:R:3:forces:R:3 cutoff=-1.0 nneightol=1.2 n_minim_iter=3 energy=-651.9866344427209 stress="0.06970833079364129 1.2903287464224426e-16 7.727073548853295e-18 1.2903287464224426e-16 0.06970833079364144 5.282891822640803e-17 7.727073548853295e-18 5.282891822640803e-17 0.06979419185649598" free_energy=-651.9866344427209 pbc="T T T"
Si       2.04747047       1.18210763       0.42713734       0.00000000      -0.00000000       0.00142841
Si       2.04747047      -1.18210763       3.79173644      -0.00000000       0.00000000       0.00142841
Si       2.04747047       1.18210763       2.93746176       0.00000000      -0.00000000      -0.00142841
Si       2.04747047      -1.18210763      -0.42713734      -0.00000000       0.00000000      -0.00142841
