4
Lattice="1.7493977016916458 -3.030045701974153 3.0268897384160567e-16 1.7493977016916458 3.030045701974153 -3.0268897384160655e-16 1.4237460501857266e-30 5.946882942478759e-16 5.953083414736635" Properties=species:S:1:pos:R:3:forces:R:3 cutoff=-1.0 nneightol=1.2 n_minim_iter=1 energy=-650.9589011875242 stress="-0.22045733942518161 -3.619888396265035e-16 7.063254252481002e-17 -3.619888396265035e-16 -0.22045733942518192 -3.323755433815418e-16 7.063254252481002e-17 -3.323755433815418e-16 -0.2252502395243627" free_energy=-650.9589011875242 pbc="T T T"
Si       1.74939770       1.01001523       0.39873983      -0.00000000       0.00000000       0.04282450
Si       1.74939770      -1.01001523       3.37528154      -0.00000000       0.00000000       0.04282450
Si       1.74939770       1.01001523       2.57780187       0.00000000      -0.00000000      -0.04282450
Si       1.74939770      -1.01001523      -0.39873983       0.00000000      -0.00000000      -0.04282450
4
Lattice="1.7477156906997149 -3.027132373477239 3.023979444315161e-16 1.7477156906997149 3.027132373477239 -3.0239794443151663e-16 1.4820343997691663e-30 5.958335074959123e-16 5.9645474876958176" Properties=species:S:1:pos:R:3:forces:R:3 cutoff=-1.0 nneightol=1.2 n_minim_iter=2 energy=-650.9592297279457 stress="-0.2221748343553734 5.331878481008269e-16 -8.883980835878175e-17 5.331878481008269e-16 -0.22217483435537433 -4.7418588577652434e-17 -8.883980835878175e-17 -4.7418588577652434e-17 -0.22089424540457725" free_energy=-650.9592297279457 pbc="T T T"
Si       1.74771569       1.00904412       0.39991705       0.00000000      -0.00000000       0.09822080
Si       1.74771569      -1.00904412       3.38219079       0.00000000       0.00000000       0.09822080
Si       1.74771569       1.00904412       2.58235670      -0.00000000      -0.00000000      -0.09822080
Si       1.74771569      -1.00904412      -0.39991705      -0.00000000      -0.00000000      -0.09822080
4
Lattice="1.7454357210786846 -3.0231833502539005 3.031884730309133e-16 1.7454357210786846 3.0231833502539005 -3.0318847303091377e-16 1.4757196192619048e-30 5.950562172858909e-16 5.980140005628939" Properties=species:S:1:pos:R:3:forces:R:3 cutoff=-1.0 nneightol=1.2 n_minim_iter=3 energy=-650.9600495360999 stress="-0.22101939157214234 2.591323496397123e-16 -1.430588966407771e-16 2.591323496397123e-16 -0.22101939157214262 -5.565862254401685e-16 -1.430588966407771e-16 -5.565862254401685e-16 -0.22106480666144968" free_energy=-650.9600495360999 pbc="T T T"
Si       1.74543572       1.00772778       0.40548300       0.00000000      -0.00000000       0.00349764
Si       1.74543572      -1.00772778       3.39555300       0.00000000       0.00000000       0.00349764
Si       1.74543572       1.00772778       2.58458700      -0.00000000      -0.00000000      -0.00349764
Si       1.74543572      -1.00772778      -0.40548300      -0.00000000       0.00000000      -0.00349764
