4
Lattice="1.941228792887858 -3.362306898397371 -8.303464948723874e-18 1.941228792887858 3.362306898397371 8.303464948723874e-18 1.0420637969162118e-33 -1.5791005711169265e-17 6.39422310603678" Properties=species:S:1:pos:R:3:forces:R:3 cutoff=-1.0 nneightol=1.2 n_minim_iter=1 energy=-652.643516649048 stress="0.012911633105198451 -3.6656670146886414e-17 -7.761623001404569e-17 -3.6656670146886414e-17 0.012911633105198278 -1.9184549635089218e-16 -7.761623001404569e-17 -1.9184549635089218e-16 0.012935746510546063" free_energy=-652.643516649048 pbc="T T T"
Si       1.94122879       1.12076897       0.40036556       0.00000000       0.00000000      -0.00969151
Si       1.94122879      -1.12076897       3.59747712      -0.00000000      -0.00000000      -0.00969151
Si       1.94122879       1.12076897       2.79674599       0.00000000       0.00000000       0.00969151
Si       1.94122879      -1.12076897      -0.40036556      -0.00000000      -0.00000000       0.00969151
