4
Lattice="1.9084647878658316 -3.305557977039781 -8.17194157070676e-18 1.9084647878658316 3.305557977039781 8.171941570706761e-18 1.9906451954648876e-33 -1.5524485560469274e-17 6.292941312485001" Properties=species:S:1:pos:R:3:forces:R:3 cutoff=-1.0 nneightol=1.2 n_minim_iter=2 energy=-652.6426632465862 stress="-0.014543245128550335 4.9596377149022095e-17 1.0081108635951552e-16 4.9596377149022095e-17 -0.014543245128549985 -4.0541367304659035e-17 1.0081108635951552e-16 -4.0541367304659035e-17 -0.01422169587714554" free_energy=-652.6426632465862 pbc="T T T"
Si       1.90846479       1.10185266       0.39507201       0.00000000      -0.00000000       0.00446951
Si       1.90846479      -1.10185266       3.54154266       0.00000000       0.00000000       0.00446951
Si       1.90846479       1.10185266       2.75139865      -0.00000000      -0.00000000      -0.00446951
Si       1.90846479      -1.10185266      -0.39507201      -0.00000000       0.00000000      -0.00446951
