LAMMPS (27 Jun 2024 - Development - patch_17Apr2024-1524-g5a286ff933-modified)
  using 1 OpenMP thread(s) per MPI task
units metal
atom_style atomic
atom_modify map array sort 0 0
boundary p p p
box tilt large

The 'box' command has been removed and will be ignored

region cell prism    0 5.51889083 0 5.51889083 0 6.95380245     0.0 0.0 0.0     units box
create_box 1 cell
Created triclinic box = (0 0 0) to (5.5188908 5.5188908 6.9538025) with tilt (0 0 0)
  1 by 1 by 1 MPI processor grid
echo none
Created 12 atoms
  using lattice units in triclinic box = (0 0 0) to (5.5188908 5.5188908 6.9538025) with tilt (0 0 0)
  create_atoms CPU = 0.001 seconds
Setting atom values ...
  1 settings made for type
Setting atom values ...
  1 settings made for type
Setting atom values ...
  1 settings made for type
Setting atom values ...
  1 settings made for type
Setting atom values ...
  1 settings made for type
Setting atom values ...
  1 settings made for type
Setting atom values ...
  1 settings made for type
Setting atom values ...
  1 settings made for type
Setting atom values ...
  1 settings made for type
Setting atom values ...
  1 settings made for type
Setting atom values ...
  1 settings made for type
Setting atom values ...
  1 settings made for type
pair_style hybrid/overlay pace table spline 5000
ACE version: 2023.11.25
Recursive evaluator is used
pair_coeff * * pace /home/eng/phrffk/testing-framework/example_models/Si/models/Si_jl_ACE/0ce218cb3e.yace Si
Loading /home/eng/phrffk/testing-framework/example_models/Si/models/Si_jl_ACE/0ce218cb3e.yace
Total number of basis functions
	Si: 32 (r=1) 45284 (r>1)
Mapping LAMMPS atom type #1(Si) -> ACE species type #0
pair_coeff 1 1 table /home/eng/phrffk/testing-framework/example_models/Si/models/Si_jl_ACE/0ce218cb3e_pairpot.table Si_Si
Reading pair table potential file /home/eng/phrffk/testing-framework/example_models/Si/models/Si_jl_ACE/0ce218cb3e_pairpot.table with DATE: none
WARNING: 1 of 6000 force values in table Si_Si are inconsistent with -dE/dr.
WARNING:  Should only be flagged at inflection points (src/pair_table.cpp:473)
mass 1 28.084999992775294685998233035207
variable pxx equal pxx
variable pyy equal pyy
variable pzz equal pzz
variable pxy equal pxy
variable pxz equal pxz
variable pyz equal pyz
thermo_style custom pe pxx emol ecoul
variable fx atom fx
variable fy atom fy
variable fz atom fz
variable pe equal pe
neigh_modify delay 0 every 1 check yes
echo none
run 0
WARNING: No fixes with time integration, atoms won't move (src/verlet.cpp:60)
Neighbor list info ...
  update: every = 1 steps, delay = 0 steps, check = yes
  max neighbors/atom: 2000, page size: 100000
  master list distance cutoff = 8
  ghost atom cutoff = 8
  binsize = 4, bins = 2 2 2
  2 neighbor lists, perpetual/occasional/extra = 2 0 0
  (1) pair pace, perpetual
      attributes: full, newton on
      pair build: full/bin/atomonly
      stencil: full/bin/3d
      bin: standard
  (2) pair table, perpetual, half/full from (1)
      attributes: half, newton on
      pair build: halffull/newton/tri
      stencil: none
      bin: none
Per MPI rank memory allocation (min/avg/max) = 3.607 | 3.607 | 3.607 Mbytes
    PotEng          Pxx           E_mol          E_coul    
-1954.6688      50588.304      0              0            
Loop time of 1.29e-06 on 1 procs for 0 steps with 12 atoms

232.6% CPU use with 1 MPI tasks x 1 OpenMP threads

MPI task timing breakdown:
Section |  min time  |  avg time  |  max time  |%varavg| %total
---------------------------------------------------------------
Pair    | 0          | 0          | 0          |   0.0 |  0.00
Neigh   | 0          | 0          | 0          |   0.0 |  0.00
Comm    | 0          | 0          | 0          |   0.0 |  0.00
Output  | 0          | 0          | 0          |   0.0 |  0.00
Modify  | 0          | 0          | 0          |   0.0 |  0.00
Other   |            | 1.29e-06   |            |       |100.00

Nlocal:             12 ave          12 max          12 min
Histogram: 1 0 0 0 0 0 0 0 0 0
Nghost:            612 ave         612 max         612 min
Histogram: 1 0 0 0 0 0 0 0 0 0
Neighs:            748 ave         748 max         748 min
Histogram: 1 0 0 0 0 0 0 0 0 0
FullNghs:         1496 ave        1496 max        1496 min
Histogram: 1 0 0 0 0 0 0 0 0 0

Total # of neighbors = 1496
Ave neighs/atom = 124.66667
Neighbor list builds = 0
Dangerous builds = 0
set atom * x 0.0 y 0.0 z 0.0
Setting atom values ...
  12 settings made for x
  12 settings made for y
  12 settings made for z
change_box all     x final 0 5.652591200450986 y final 0 5.652591200450986 z final 0 6.6811399559115525      xy final 0.0 xz final 0.0 yz final 0.0 units box
Changing box ...
  triclinic box = (0 0 0) to (5.6525912 5.5188908 6.9538025) with tilt (0 0 0)
  triclinic box = (0 0 0) to (5.6525912 5.6525912 6.9538025) with tilt (0 0 0)
  triclinic box = (0 0 0) to (5.6525912 5.6525912 6.68114) with tilt (0 0 0)
  triclinic box = (0 0 0) to (5.6525912 5.6525912 6.68114) with tilt (0 0 0)
  triclinic box = (0 0 0) to (5.6525912 5.6525912 6.68114) with tilt (0 0 0)
  triclinic box = (0 0 0) to (5.6525912 5.6525912 6.68114) with tilt (0 0 0)
echo none
run 0
WARNING: No fixes with time integration, atoms won't move (src/verlet.cpp:60)
Per MPI rank memory allocation (min/avg/max) = 3.607 | 3.607 | 3.607 Mbytes
    PotEng          Pxx           E_mol          E_coul    
-1955.186       3352.4022      0              0            
Loop time of 8.05e-07 on 1 procs for 0 steps with 12 atoms

248.4% CPU use with 1 MPI tasks x 1 OpenMP threads

MPI task timing breakdown:
Section |  min time  |  avg time  |  max time  |%varavg| %total
---------------------------------------------------------------
Pair    | 0          | 0          | 0          |   0.0 |  0.00
Neigh   | 0          | 0          | 0          |   0.0 |  0.00
Comm    | 0          | 0          | 0          |   0.0 |  0.00
Output  | 0          | 0          | 0          |   0.0 |  0.00
Modify  | 0          | 0          | 0          |   0.0 |  0.00
Other   |            | 8.05e-07   |            |       |100.00

Nlocal:             12 ave          12 max          12 min
Histogram: 1 0 0 0 0 0 0 0 0 0
Nghost:            612 ave         612 max         612 min
Histogram: 1 0 0 0 0 0 0 0 0 0
Neighs:            744 ave         744 max         744 min
Histogram: 1 0 0 0 0 0 0 0 0 0
FullNghs:         1488 ave        1488 max        1488 min
Histogram: 1 0 0 0 0 0 0 0 0 0

Total # of neighbors = 1488
Ave neighs/atom = 124
Neighbor list builds = 0
Dangerous builds = 0
set atom * x 0.0 y 0.0 z 0.0
Setting atom values ...
  12 settings made for x
  12 settings made for y
  12 settings made for z
change_box all     x final 0 5.471886422363645 y final 0 5.471886422363645 z final 0 6.419168711138438      xy final 0.0 xz final 0.0 yz final 0.0 units box
Changing box ...
  triclinic box = (0 0 0) to (5.4718864 5.6525912 6.68114) with tilt (0 0 0)
  triclinic box = (0 0 0) to (5.4718864 5.4718864 6.68114) with tilt (0 0 0)
  triclinic box = (0 0 0) to (5.4718864 5.4718864 6.4191687) with tilt (0 0 0)
  triclinic box = (0 0 0) to (5.4718864 5.4718864 6.4191687) with tilt (0 0 0)
  triclinic box = (0 0 0) to (5.4718864 5.4718864 6.4191687) with tilt (0 0 0)
  triclinic box = (0 0 0) to (5.4718864 5.4718864 6.4191687) with tilt (0 0 0)
echo none
run 0
WARNING: No fixes with time integration, atoms won't move (src/verlet.cpp:60)
Per MPI rank memory allocation (min/avg/max) = 3.607 | 3.607 | 3.607 Mbytes
    PotEng          Pxx           E_mol          E_coul    
-1954.7529      116539.65      0              0            
Loop time of 6.84e-07 on 1 procs for 0 steps with 12 atoms

146.2% CPU use with 1 MPI tasks x 1 OpenMP threads

MPI task timing breakdown:
Section |  min time  |  avg time  |  max time  |%varavg| %total
---------------------------------------------------------------
Pair    | 0          | 0          | 0          |   0.0 |  0.00
Neigh   | 0          | 0          | 0          |   0.0 |  0.00
Comm    | 0          | 0          | 0          |   0.0 |  0.00
Output  | 0          | 0          | 0          |   0.0 |  0.00
Modify  | 0          | 0          | 0          |   0.0 |  0.00
Other   |            | 6.84e-07   |            |       |100.00

Nlocal:             12 ave          12 max          12 min
Histogram: 1 0 0 0 0 0 0 0 0 0
Nghost:            644 ave         644 max         644 min
Histogram: 1 0 0 0 0 0 0 0 0 0
Neighs:            788 ave         788 max         788 min
Histogram: 1 0 0 0 0 0 0 0 0 0
FullNghs:         1576 ave        1576 max        1576 min
Histogram: 1 0 0 0 0 0 0 0 0 0

Total # of neighbors = 1576
Ave neighs/atom = 131.33333
Neighbor list builds = 0
Dangerous builds = 0
set atom * x 0.0 y 0.0 z 0.0
Setting atom values ...
  12 settings made for x
  12 settings made for y
  12 settings made for z
change_box all     x final 0 5.609792523954621 y final 0 5.609792523954621 z final 0 6.618916488480303      xy final 0.0 xz final 0.0 yz final 0.0 units box
Changing box ...
  triclinic box = (0 0 0) to (5.6097925 5.4718864 6.4191687) with tilt (0 0 0)
  triclinic box = (0 0 0) to (5.6097925 5.6097925 6.4191687) with tilt (0 0 0)
  triclinic box = (0 0 0) to (5.6097925 5.6097925 6.6189165) with tilt (0 0 0)
  triclinic box = (0 0 0) to (5.6097925 5.6097925 6.6189165) with tilt (0 0 0)
  triclinic box = (0 0 0) to (5.6097925 5.6097925 6.6189165) with tilt (0 0 0)
  triclinic box = (0 0 0) to (5.6097925 5.6097925 6.6189165) with tilt (0 0 0)
echo none
run 0
WARNING: No fixes with time integration, atoms won't move (src/verlet.cpp:60)
Per MPI rank memory allocation (min/avg/max) = 3.607 | 3.607 | 3.607 Mbytes
    PotEng          Pxx           E_mol          E_coul    
-1955.2291      24453.901      0              0            
Loop time of 6.19e-07 on 1 procs for 0 steps with 12 atoms

161.6% CPU use with 1 MPI tasks x 1 OpenMP threads

MPI task timing breakdown:
Section |  min time  |  avg time  |  max time  |%varavg| %total
---------------------------------------------------------------
Pair    | 0          | 0          | 0          |   0.0 |  0.00
Neigh   | 0          | 0          | 0          |   0.0 |  0.00
Comm    | 0          | 0          | 0          |   0.0 |  0.00
Output  | 0          | 0          | 0          |   0.0 |  0.00
Modify  | 0          | 0          | 0          |   0.0 |  0.00
Other   |            | 6.19e-07   |            |       |100.00

Nlocal:             12 ave          12 max          12 min
Histogram: 1 0 0 0 0 0 0 0 0 0
Nghost:            612 ave         612 max         612 min
Histogram: 1 0 0 0 0 0 0 0 0 0
Neighs:            768 ave         768 max         768 min
Histogram: 1 0 0 0 0 0 0 0 0 0
FullNghs:         1536 ave        1536 max        1536 min
Histogram: 1 0 0 0 0 0 0 0 0 0

Total # of neighbors = 1536
Ave neighs/atom = 128
Neighbor list builds = 0
Dangerous builds = 0
set atom * x 0.0 y 0.0 z 0.0
Setting atom values ...
  12 settings made for x
  12 settings made for y
  12 settings made for z
change_box all     x final 0 5.5892364354242074 y final 0 5.5892364354242074 z final 0 6.701860016680405      xy final 0.0 xz final 9.757619560607293e-49 yz final 9.757619560607293e-49 units box
Changing box ...
  triclinic box = (0 0 0) to (5.5892364 5.6097925 6.6189165) with tilt (0 0 0)
  triclinic box = (0 0 0) to (5.5892364 5.5892364 6.6189165) with tilt (0 0 0)
  triclinic box = (0 0 0) to (5.5892364 5.5892364 6.70186) with tilt (0 0 0)
  triclinic box = (0 0 0) to (5.5892364 5.5892364 6.70186) with tilt (0 0 0)
  triclinic box = (0 0 0) to (5.5892364 5.5892364 6.70186) with tilt (0 9.7576196e-49 0)
  triclinic box = (0 0 0) to (5.5892364 5.5892364 6.70186) with tilt (0 9.7576196e-49 9.7576196e-49)
echo none
run 0
WARNING: No fixes with time integration, atoms won't move (src/verlet.cpp:60)
Per MPI rank memory allocation (min/avg/max) = 3.607 | 3.607 | 3.607 Mbytes
    PotEng          Pxx           E_mol          E_coul    
-1955.5166      21512.166      0              0            
Loop time of 6.08e-07 on 1 procs for 0 steps with 12 atoms

164.5% CPU use with 1 MPI tasks x 1 OpenMP threads

MPI task timing breakdown:
Section |  min time  |  avg time  |  max time  |%varavg| %total
---------------------------------------------------------------
Pair    | 0          | 0          | 0          |   0.0 |  0.00
Neigh   | 0          | 0          | 0          |   0.0 |  0.00
Comm    | 0          | 0          | 0          |   0.0 |  0.00
Output  | 0          | 0          | 0          |   0.0 |  0.00
Modify  | 0          | 0          | 0          |   0.0 |  0.00
Other   |            | 6.08e-07   |            |       |100.00

Nlocal:             12 ave          12 max          12 min
Histogram: 1 0 0 0 0 0 0 0 0 0
Nghost:            612 ave         612 max         612 min
Histogram: 1 0 0 0 0 0 0 0 0 0
Neighs:            768 ave         768 max         768 min
Histogram: 1 0 0 0 0 0 0 0 0 0
FullNghs:         1536 ave        1536 max        1536 min
Histogram: 1 0 0 0 0 0 0 0 0 0

Total # of neighbors = 1536
Ave neighs/atom = 128
Neighbor list builds = 0
Dangerous builds = 0
set atom * x 0.0 y 0.0 z 0.0
Setting atom values ...
  12 settings made for x
  12 settings made for y
  12 settings made for z
change_box all     x final 0 5.5687556710299155 y final 0 5.5687556710299155 z final 0 6.785842933862411      xy final 3.4194762749193216e-97 xz final -9.653590115871088e-49 yz final -9.865147752925068e-49 units box
Changing box ...
  triclinic box = (0 0 0) to (5.5687557 5.5892364 6.70186) with tilt (0 9.7576196e-49 9.7576196e-49)
  triclinic box = (0 0 0) to (5.5687557 5.5687557 6.70186) with tilt (0 9.7576196e-49 9.7576196e-49)
  triclinic box = (0 0 0) to (5.5687557 5.5687557 6.7858429) with tilt (0 9.7576196e-49 9.7576196e-49)
  triclinic box = (0 0 0) to (5.5687557 5.5687557 6.7858429) with tilt (3.4194763e-97 9.7576196e-49 9.7576196e-49)
  triclinic box = (0 0 0) to (5.5687557 5.5687557 6.7858429) with tilt (3.4194763e-97 -9.6535901e-49 9.7576196e-49)
  triclinic box = (0 0 0) to (5.5687557 5.5687557 6.7858429) with tilt (3.4194763e-97 -9.6535901e-49 -9.8651478e-49)
echo none
run 0
WARNING: No fixes with time integration, atoms won't move (src/verlet.cpp:60)
Per MPI rank memory allocation (min/avg/max) = 3.607 | 3.607 | 3.607 Mbytes
    PotEng          Pxx           E_mol          E_coul    
-1955.6832      20977.703      0              0            
Loop time of 6.23e-07 on 1 procs for 0 steps with 12 atoms

160.5% CPU use with 1 MPI tasks x 1 OpenMP threads

MPI task timing breakdown:
Section |  min time  |  avg time  |  max time  |%varavg| %total
---------------------------------------------------------------
Pair    | 0          | 0          | 0          |   0.0 |  0.00
Neigh   | 0          | 0          | 0          |   0.0 |  0.00
Comm    | 0          | 0          | 0          |   0.0 |  0.00
Output  | 0          | 0          | 0          |   0.0 |  0.00
Modify  | 0          | 0          | 0          |   0.0 |  0.00
Other   |            | 6.23e-07   |            |       |100.00

Nlocal:             12 ave          12 max          12 min
Histogram: 1 0 0 0 0 0 0 0 0 0
Nghost:            612 ave         612 max         612 min
Histogram: 1 0 0 0 0 0 0 0 0 0
Neighs:            752 ave         752 max         752 min
Histogram: 1 0 0 0 0 0 0 0 0 0
FullNghs:         1504 ave        1504 max        1504 min
Histogram: 1 0 0 0 0 0 0 0 0 0

Total # of neighbors = 1504
Ave neighs/atom = 125.33333
Neighbor list builds = 0
Dangerous builds = 0
set atom * x 0.0 y 0.0 z 0.0
Setting atom values ...
  12 settings made for x
  12 settings made for y
  12 settings made for z
change_box all     x final 0 5.595222198734026 y final 0 5.595222198734026 z final 0 6.775150182814974      xy final 2.574129884869524e-97 xz final 1.280283407257772e-47 yz final 1.27607878524707e-47 units box
Changing box ...
  triclinic box = (0 0 0) to (5.5952222 5.5687557 6.7858429) with tilt (3.4194763e-97 -9.6535901e-49 -9.8651478e-49)
  triclinic box = (0 0 0) to (5.5952222 5.5952222 6.7858429) with tilt (3.4194763e-97 -9.6535901e-49 -9.8651478e-49)
  triclinic box = (0 0 0) to (5.5952222 5.5952222 6.7751502) with tilt (3.4194763e-97 -9.6535901e-49 -9.8651478e-49)
  triclinic box = (0 0 0) to (5.5952222 5.5952222 6.7751502) with tilt (2.5741299e-97 -9.6535901e-49 -9.8651478e-49)
  triclinic box = (0 0 0) to (5.5952222 5.5952222 6.7751502) with tilt (2.5741299e-97 1.2802834e-47 -9.8651478e-49)
  triclinic box = (0 0 0) to (5.5952222 5.5952222 6.7751502) with tilt (2.5741299e-97 1.2802834e-47 1.2760788e-47)
echo none
run 0
WARNING: No fixes with time integration, atoms won't move (src/verlet.cpp:60)
Per MPI rank memory allocation (min/avg/max) = 3.607 | 3.607 | 3.607 Mbytes
    PotEng          Pxx           E_mol          E_coul    
-1955.8405      20416.902      0              0            
Loop time of 6.22e-07 on 1 procs for 0 steps with 12 atoms

321.5% CPU use with 1 MPI tasks x 1 OpenMP threads

MPI task timing breakdown:
Section |  min time  |  avg time  |  max time  |%varavg| %total
---------------------------------------------------------------
Pair    | 0          | 0          | 0          |   0.0 |  0.00
Neigh   | 0          | 0          | 0          |   0.0 |  0.00
Comm    | 0          | 0          | 0          |   0.0 |  0.00
Output  | 0          | 0          | 0          |   0.0 |  0.00
Modify  | 0          | 0          | 0          |   0.0 |  0.00
Other   |            | 6.22e-07   |            |       |100.00

Nlocal:             12 ave          12 max          12 min
Histogram: 1 0 0 0 0 0 0 0 0 0
Nghost:            612 ave         612 max         612 min
Histogram: 1 0 0 0 0 0 0 0 0 0
Neighs:            752 ave         752 max         752 min
Histogram: 1 0 0 0 0 0 0 0 0 0
FullNghs:         1504 ave        1504 max        1504 min
Histogram: 1 0 0 0 0 0 0 0 0 0

Total # of neighbors = 1504
Ave neighs/atom = 125.33333
Neighbor list builds = 0
Dangerous builds = 0
set atom * x 0.0 y 0.0 z 0.0
Setting atom values ...
  12 settings made for x
  12 settings made for y
  12 settings made for z
change_box all     x final 0 5.6218145134415725 y final 0 5.6218145134415725 z final 0 6.764474280805467      xy final 3.6236886443551634e-95 xz final -2.8434276997828034e-48 yz final -2.9058036499972253e-48 units box
Changing box ...
  triclinic box = (0 0 0) to (5.6218145 5.5952222 6.7751502) with tilt (2.5741299e-97 1.2802834e-47 1.2760788e-47)
  triclinic box = (0 0 0) to (5.6218145 5.6218145 6.7751502) with tilt (2.5741299e-97 1.2802834e-47 1.2760788e-47)
  triclinic box = (0 0 0) to (5.6218145 5.6218145 6.7644743) with tilt (2.5741299e-97 1.2802834e-47 1.2760788e-47)
  triclinic box = (0 0 0) to (5.6218145 5.6218145 6.7644743) with tilt (3.6236886e-95 1.2802834e-47 1.2760788e-47)
  triclinic box = (0 0 0) to (5.6218145 5.6218145 6.7644743) with tilt (3.6236886e-95 -2.8434277e-48 1.2760788e-47)
  triclinic box = (0 0 0) to (5.6218145 5.6218145 6.7644743) with tilt (3.6236886e-95 -2.8434277e-48 -2.9058036e-48)
echo none
run 0
WARNING: No fixes with time integration, atoms won't move (src/verlet.cpp:60)
Per MPI rank memory allocation (min/avg/max) = 3.607 | 3.607 | 3.607 Mbytes
    PotEng          Pxx           E_mol          E_coul    
-1955.9282      18896.821      0              0            
Loop time of 6.3e-07 on 1 procs for 0 steps with 12 atoms

158.7% CPU use with 1 MPI tasks x 1 OpenMP threads

MPI task timing breakdown:
Section |  min time  |  avg time  |  max time  |%varavg| %total
---------------------------------------------------------------
Pair    | 0          | 0          | 0          |   0.0 |  0.00
Neigh   | 0          | 0          | 0          |   0.0 |  0.00
Comm    | 0          | 0          | 0          |   0.0 |  0.00
Output  | 0          | 0          | 0          |   0.0 |  0.00
Modify  | 0          | 0          | 0          |   0.0 |  0.00
Other   |            | 6.3e-07    |            |       |100.00

Nlocal:             12 ave          12 max          12 min
Histogram: 1 0 0 0 0 0 0 0 0 0
Nghost:            612 ave         612 max         612 min
Histogram: 1 0 0 0 0 0 0 0 0 0
Neighs:            752 ave         752 max         752 min
Histogram: 1 0 0 0 0 0 0 0 0 0
FullNghs:         1504 ave        1504 max        1504 min
Histogram: 1 0 0 0 0 0 0 0 0 0

Total # of neighbors = 1504
Ave neighs/atom = 125.33333
Neighbor list builds = 0
Dangerous builds = 0
set atom * x 0.0 y 0.0 z 0.0
Setting atom values ...
  12 settings made for x
  12 settings made for y
  12 settings made for z
change_box all     x final 0 5.626764678780898 y final 0 5.626764678780898 z final 0 6.8040942188115245      xy final 9.795940635804463e-95 xz final 2.943667997196957e-47 yz final 2.827668355898049e-47 units box
Changing box ...
  triclinic box = (0 0 0) to (5.6267647 5.6218145 6.7644743) with tilt (3.6236886e-95 -2.8434277e-48 -2.9058036e-48)
  triclinic box = (0 0 0) to (5.6267647 5.6267647 6.7644743) with tilt (3.6236886e-95 -2.8434277e-48 -2.9058036e-48)
  triclinic box = (0 0 0) to (5.6267647 5.6267647 6.8040942) with tilt (3.6236886e-95 -2.8434277e-48 -2.9058036e-48)
  triclinic box = (0 0 0) to (5.6267647 5.6267647 6.8040942) with tilt (9.7959406e-95 -2.8434277e-48 -2.9058036e-48)
  triclinic box = (0 0 0) to (5.6267647 5.6267647 6.8040942) with tilt (9.7959406e-95 2.943668e-47 -2.9058036e-48)
  triclinic box = (0 0 0) to (5.6267647 5.6267647 6.8040942) with tilt (9.7959406e-95 2.943668e-47 2.8276684e-47)
echo none
run 0
WARNING: No fixes with time integration, atoms won't move (src/verlet.cpp:60)
Per MPI rank memory allocation (min/avg/max) = 3.607 | 3.607 | 3.607 Mbytes
    PotEng          Pxx           E_mol          E_coul    
-1956.025       16090.96       0              0            
Loop time of 6.18e-07 on 1 procs for 0 steps with 12 atoms

161.8% CPU use with 1 MPI tasks x 1 OpenMP threads

MPI task timing breakdown:
Section |  min time  |  avg time  |  max time  |%varavg| %total
---------------------------------------------------------------
Pair    | 0          | 0          | 0          |   0.0 |  0.00
Neigh   | 0          | 0          | 0          |   0.0 |  0.00
Comm    | 0          | 0          | 0          |   0.0 |  0.00
Output  | 0          | 0          | 0          |   0.0 |  0.00
Modify  | 0          | 0          | 0          |   0.0 |  0.00
Other   |            | 6.18e-07   |            |       |100.00

Nlocal:             12 ave          12 max          12 min
Histogram: 1 0 0 0 0 0 0 0 0 0
Nghost:            612 ave         612 max         612 min
Histogram: 1 0 0 0 0 0 0 0 0 0
Neighs:            748 ave         748 max         748 min
Histogram: 1 0 0 0 0 0 0 0 0 0
FullNghs:         1496 ave        1496 max        1496 min
Histogram: 1 0 0 0 0 0 0 0 0 0

Total # of neighbors = 1496
Ave neighs/atom = 124.66667
Neighbor list builds = 0
Dangerous builds = 0
set atom * x 0.0 y 0.0 z 0.0
Setting atom values ...
  12 settings made for x
  12 settings made for y
  12 settings made for z
change_box all     x final 0 5.631719202879629 y final 0 5.631719202879629 z final 0 6.84394621320843      xy final 9.701211592598558e-95 xz final 2.8921746385406766e-47 yz final 2.830158197185592e-47 units box
Changing box ...
  triclinic box = (0 0 0) to (5.6317192 5.6267647 6.8040942) with tilt (9.7959406e-95 2.943668e-47 2.8276684e-47)
  triclinic box = (0 0 0) to (5.6317192 5.6317192 6.8040942) with tilt (9.7959406e-95 2.943668e-47 2.8276684e-47)
  triclinic box = (0 0 0) to (5.6317192 5.6317192 6.8439462) with tilt (9.7959406e-95 2.943668e-47 2.8276684e-47)
  triclinic box = (0 0 0) to (5.6317192 5.6317192 6.8439462) with tilt (9.7012116e-95 2.943668e-47 2.8276684e-47)
  triclinic box = (0 0 0) to (5.6317192 5.6317192 6.8439462) with tilt (9.7012116e-95 2.8921746e-47 2.8276684e-47)
  triclinic box = (0 0 0) to (5.6317192 5.6317192 6.8439462) with tilt (9.7012116e-95 2.8921746e-47 2.8301582e-47)
echo none
run 0
WARNING: No fixes with time integration, atoms won't move (src/verlet.cpp:60)
Per MPI rank memory allocation (min/avg/max) = 3.607 | 3.607 | 3.607 Mbytes
    PotEng          Pxx           E_mol          E_coul    
-1956.0642      12787.358      0              0            
Loop time of 6.08e-07 on 1 procs for 0 steps with 12 atoms

164.5% CPU use with 1 MPI tasks x 1 OpenMP threads

MPI task timing breakdown:
Section |  min time  |  avg time  |  max time  |%varavg| %total
---------------------------------------------------------------
Pair    | 0          | 0          | 0          |   0.0 |  0.00
Neigh   | 0          | 0          | 0          |   0.0 |  0.00
Comm    | 0          | 0          | 0          |   0.0 |  0.00
Output  | 0          | 0          | 0          |   0.0 |  0.00
Modify  | 0          | 0          | 0          |   0.0 |  0.00
Other   |            | 6.08e-07   |            |       |100.00

Nlocal:             12 ave          12 max          12 min
Histogram: 1 0 0 0 0 0 0 0 0 0
Nghost:            612 ave         612 max         612 min
Histogram: 1 0 0 0 0 0 0 0 0 0
Neighs:            744 ave         744 max         744 min
Histogram: 1 0 0 0 0 0 0 0 0 0
FullNghs:         1488 ave        1488 max        1488 min
Histogram: 1 0 0 0 0 0 0 0 0 0

Total # of neighbors = 1488
Ave neighs/atom = 124
Neighbor list builds = 0
Dangerous builds = 0
set atom * x 0.0 y 0.0 z 0.0
Setting atom values ...
  12 settings made for x
  12 settings made for y
  12 settings made for z
change_box all     x final 0 5.631719202879628 y final 0 5.631719202879628 z final 0 6.84394621320843      xy final 9.933383742900842e-95 xz final 3.0136700009930057e-47 yz final 2.8301581971855914e-47 units box
Changing box ...
  triclinic box = (0 0 0) to (5.6317192 5.6317192 6.8439462) with tilt (9.7012116e-95 2.8921746e-47 2.8301582e-47)
  triclinic box = (0 0 0) to (5.6317192 5.6317192 6.8439462) with tilt (9.7012116e-95 2.8921746e-47 2.8301582e-47)
  triclinic box = (0 0 0) to (5.6317192 5.6317192 6.8439462) with tilt (9.7012116e-95 2.8921746e-47 2.8301582e-47)
  triclinic box = (0 0 0) to (5.6317192 5.6317192 6.8439462) with tilt (9.9333837e-95 2.8921746e-47 2.8301582e-47)
  triclinic box = (0 0 0) to (5.6317192 5.6317192 6.8439462) with tilt (9.9333837e-95 3.01367e-47 2.8301582e-47)
  triclinic box = (0 0 0) to (5.6317192 5.6317192 6.8439462) with tilt (9.9333837e-95 3.01367e-47 2.8301582e-47)
echo none
run 0
WARNING: No fixes with time integration, atoms won't move (src/verlet.cpp:60)
Per MPI rank memory allocation (min/avg/max) = 3.607 | 3.607 | 3.607 Mbytes
    PotEng          Pxx           E_mol          E_coul    
-1956.0642      12787.358      0              0            
Loop time of 6.78e-07 on 1 procs for 0 steps with 12 atoms

147.5% CPU use with 1 MPI tasks x 1 OpenMP threads

MPI task timing breakdown:
Section |  min time  |  avg time  |  max time  |%varavg| %total
---------------------------------------------------------------
Pair    | 0          | 0          | 0          |   0.0 |  0.00
Neigh   | 0          | 0          | 0          |   0.0 |  0.00
Comm    | 0          | 0          | 0          |   0.0 |  0.00
Output  | 0          | 0          | 0          |   0.0 |  0.00
Modify  | 0          | 0          | 0          |   0.0 |  0.00
Other   |            | 6.78e-07   |            |       |100.00

Nlocal:             12 ave          12 max          12 min
Histogram: 1 0 0 0 0 0 0 0 0 0
Nghost:            612 ave         612 max         612 min
Histogram: 1 0 0 0 0 0 0 0 0 0
Neighs:            744 ave         744 max         744 min
Histogram: 1 0 0 0 0 0 0 0 0 0
FullNghs:         1488 ave        1488 max        1488 min
Histogram: 1 0 0 0 0 0 0 0 0 0

Total # of neighbors = 1488
Ave neighs/atom = 124
Neighbor list builds = 0
Dangerous builds = 0
set atom * x 0.0 y 0.0 z 0.0
Setting atom values ...
  12 settings made for x
  12 settings made for y
  12 settings made for z
change_box all     x final 0 5.661530498477916 y final 0 5.661530498477916 z final 0 6.856779731356235      xy final 2.6615301182322307e-94 xz final 3.0220157635832146e-47 yz final 2.845139534068133e-47 units box
Changing box ...
  triclinic box = (0 0 0) to (5.6615305 5.6317192 6.8439462) with tilt (9.9333837e-95 3.01367e-47 2.8301582e-47)
  triclinic box = (0 0 0) to (5.6615305 5.6615305 6.8439462) with tilt (9.9333837e-95 3.01367e-47 2.8301582e-47)
  triclinic box = (0 0 0) to (5.6615305 5.6615305 6.8567797) with tilt (9.9333837e-95 3.01367e-47 2.8301582e-47)
  triclinic box = (0 0 0) to (5.6615305 5.6615305 6.8567797) with tilt (2.6615301e-94 3.01367e-47 2.8301582e-47)
  triclinic box = (0 0 0) to (5.6615305 5.6615305 6.8567797) with tilt (2.6615301e-94 3.0220158e-47 2.8301582e-47)
  triclinic box = (0 0 0) to (5.6615305 5.6615305 6.8567797) with tilt (2.6615301e-94 3.0220158e-47 2.8451395e-47)
echo none
run 0
WARNING: No fixes with time integration, atoms won't move (src/verlet.cpp:60)
Per MPI rank memory allocation (min/avg/max) = 3.607 | 3.607 | 3.607 Mbytes
    PotEng          Pxx           E_mol          E_coul    
-1956.0709     -1160.6638      0              0            
Loop time of 6.18e-07 on 1 procs for 0 steps with 12 atoms

323.6% CPU use with 1 MPI tasks x 1 OpenMP threads

MPI task timing breakdown:
Section |  min time  |  avg time  |  max time  |%varavg| %total
---------------------------------------------------------------
Pair    | 0          | 0          | 0          |   0.0 |  0.00
Neigh   | 0          | 0          | 0          |   0.0 |  0.00
Comm    | 0          | 0          | 0          |   0.0 |  0.00
Output  | 0          | 0          | 0          |   0.0 |  0.00
Modify  | 0          | 0          | 0          |   0.0 |  0.00
Other   |            | 6.18e-07   |            |       |100.00

Nlocal:             12 ave          12 max          12 min
Histogram: 1 0 0 0 0 0 0 0 0 0
Nghost:            570 ave         570 max         570 min
Histogram: 1 0 0 0 0 0 0 0 0 0
Neighs:            704 ave         704 max         704 min
Histogram: 1 0 0 0 0 0 0 0 0 0
FullNghs:         1408 ave        1408 max        1408 min
Histogram: 1 0 0 0 0 0 0 0 0 0

Total # of neighbors = 1408
Ave neighs/atom = 117.33333
Neighbor list builds = 0
Dangerous builds = 0
set atom * x 0.0 y 0.0 z 0.0
Setting atom values ...
  12 settings made for x
  12 settings made for y
  12 settings made for z
change_box all     x final 0 5.661530498477916 y final 0 5.661530498477916 z final 0 6.856779731356232      xy final 2.1469906779045792e-63 xz final 3.0220157635832127e-47 yz final -8.164715646736378e-31 units box
Changing box ...
  triclinic box = (0 0 0) to (5.6615305 5.6615305 6.8567797) with tilt (2.6615301e-94 3.0220158e-47 2.8451395e-47)
  triclinic box = (0 0 0) to (5.6615305 5.6615305 6.8567797) with tilt (2.6615301e-94 3.0220158e-47 2.8451395e-47)
  triclinic box = (0 0 0) to (5.6615305 5.6615305 6.8567797) with tilt (2.6615301e-94 3.0220158e-47 2.8451395e-47)
  triclinic box = (0 0 0) to (5.6615305 5.6615305 6.8567797) with tilt (2.1469907e-63 3.0220158e-47 2.8451395e-47)
  triclinic box = (0 0 0) to (5.6615305 5.6615305 6.8567797) with tilt (2.1469907e-63 3.0220158e-47 2.8451395e-47)
  triclinic box = (0 0 0) to (5.6615305 5.6615305 6.8567797) with tilt (2.1469907e-63 3.0220158e-47 -8.1647156e-31)
echo none
run 0
WARNING: No fixes with time integration, atoms won't move (src/verlet.cpp:60)
Per MPI rank memory allocation (min/avg/max) = 3.607 | 3.607 | 3.607 Mbytes
    PotEng          Pxx           E_mol          E_coul    
-1956.0709     -1160.6638      0              0            
Loop time of 6.15e-07 on 1 procs for 0 steps with 12 atoms

162.6% CPU use with 1 MPI tasks x 1 OpenMP threads

MPI task timing breakdown:
Section |  min time  |  avg time  |  max time  |%varavg| %total
---------------------------------------------------------------
Pair    | 0          | 0          | 0          |   0.0 |  0.00
Neigh   | 0          | 0          | 0          |   0.0 |  0.00
Comm    | 0          | 0          | 0          |   0.0 |  0.00
Output  | 0          | 0          | 0          |   0.0 |  0.00
Modify  | 0          | 0          | 0          |   0.0 |  0.00
Other   |            | 6.15e-07   |            |       |100.00

Nlocal:             12 ave          12 max          12 min
Histogram: 1 0 0 0 0 0 0 0 0 0
Nghost:            570 ave         570 max         570 min
Histogram: 1 0 0 0 0 0 0 0 0 0
Neighs:            704 ave         704 max         704 min
Histogram: 1 0 0 0 0 0 0 0 0 0
FullNghs:         1408 ave        1408 max        1408 min
Histogram: 1 0 0 0 0 0 0 0 0 0

Total # of neighbors = 1408
Ave neighs/atom = 117.33333
Neighbor list builds = 0
Dangerous builds = 0
set atom * x 0.0 y 0.0 z 0.0
Setting atom values ...
  12 settings made for x
  12 settings made for y
  12 settings made for z
change_box all     x final 0 5.649062153064751 y final 0 5.649062153064751 z final 0 6.851417527625217      xy final 2.1422623767185031e-63 xz final 3.018549252988728e-47 yz final -8.146734555773228e-31 units box
Changing box ...
  triclinic box = (0 0 0) to (5.6490622 5.6615305 6.8567797) with tilt (2.1469907e-63 3.0220158e-47 -8.1647156e-31)
  triclinic box = (0 0 0) to (5.6490622 5.6490622 6.8567797) with tilt (2.1469907e-63 3.0220158e-47 -8.1647156e-31)
  triclinic box = (0 0 0) to (5.6490622 5.6490622 6.8514175) with tilt (2.1469907e-63 3.0220158e-47 -8.1647156e-31)
  triclinic box = (0 0 0) to (5.6490622 5.6490622 6.8514175) with tilt (2.1422624e-63 3.0220158e-47 -8.1647156e-31)
  triclinic box = (0 0 0) to (5.6490622 5.6490622 6.8514175) with tilt (2.1422624e-63 3.0185493e-47 -8.1647156e-31)
  triclinic box = (0 0 0) to (5.6490622 5.6490622 6.8514175) with tilt (2.1422624e-63 3.0185493e-47 -8.1467346e-31)
echo none
run 0
WARNING: No fixes with time integration, atoms won't move (src/verlet.cpp:60)
Per MPI rank memory allocation (min/avg/max) = 3.607 | 3.607 | 3.607 Mbytes
    PotEng          Pxx           E_mol          E_coul    
-1956.0774      4687.17        0              0            
Loop time of 6.48e-07 on 1 procs for 0 steps with 12 atoms

308.6% CPU use with 1 MPI tasks x 1 OpenMP threads

MPI task timing breakdown:
Section |  min time  |  avg time  |  max time  |%varavg| %total
---------------------------------------------------------------
Pair    | 0          | 0          | 0          |   0.0 |  0.00
Neigh   | 0          | 0          | 0          |   0.0 |  0.00
Comm    | 0          | 0          | 0          |   0.0 |  0.00
Output  | 0          | 0          | 0          |   0.0 |  0.00
Modify  | 0          | 0          | 0          |   0.0 |  0.00
Other   |            | 6.48e-07   |            |       |100.00

Nlocal:             12 ave          12 max          12 min
Histogram: 1 0 0 0 0 0 0 0 0 0
Nghost:            570 ave         570 max         570 min
Histogram: 1 0 0 0 0 0 0 0 0 0
Neighs:            736 ave         736 max         736 min
Histogram: 1 0 0 0 0 0 0 0 0 0
FullNghs:         1472 ave        1472 max        1472 min
Histogram: 1 0 0 0 0 0 0 0 0 0

Total # of neighbors = 1472
Ave neighs/atom = 122.66667
Neighbor list builds = 0
Dangerous builds = 0
set atom * x 0.0 y 0.0 z 0.0
Setting atom values ...
  12 settings made for x
  12 settings made for y
  12 settings made for z
change_box all     x final 0 5.68010314062328 y final 0 5.68010314062328 z final 0 6.867595319993105      xy final 2.154033877541302e-63 xz final 1.478667426359223e-47 yz final -8.191499983933936e-31 units box
Changing box ...
  triclinic box = (0 0 0) to (5.6801031 5.6490622 6.8514175) with tilt (2.1422624e-63 3.0185493e-47 -8.1467346e-31)
  triclinic box = (0 0 0) to (5.6801031 5.6801031 6.8514175) with tilt (2.1422624e-63 3.0185493e-47 -8.1467346e-31)
  triclinic box = (0 0 0) to (5.6801031 5.6801031 6.8675953) with tilt (2.1422624e-63 3.0185493e-47 -8.1467346e-31)
  triclinic box = (0 0 0) to (5.6801031 5.6801031 6.8675953) with tilt (2.1540339e-63 3.0185493e-47 -8.1467346e-31)
  triclinic box = (0 0 0) to (5.6801031 5.6801031 6.8675953) with tilt (2.1540339e-63 1.4786674e-47 -8.1467346e-31)
  triclinic box = (0 0 0) to (5.6801031 5.6801031 6.8675953) with tilt (2.1540339e-63 1.4786674e-47 -8.1915e-31)
echo none
run 0
WARNING: No fixes with time integration, atoms won't move (src/verlet.cpp:60)
Per MPI rank memory allocation (min/avg/max) = 3.607 | 3.607 | 3.607 Mbytes
    PotEng          Pxx           E_mol          E_coul    
-1956.0727     -6316.469       0              0            
Loop time of 6.23e-07 on 1 procs for 0 steps with 12 atoms

160.5% CPU use with 1 MPI tasks x 1 OpenMP threads

MPI task timing breakdown:
Section |  min time  |  avg time  |  max time  |%varavg| %total
---------------------------------------------------------------
Pair    | 0          | 0          | 0          |   0.0 |  0.00
Neigh   | 0          | 0          | 0          |   0.0 |  0.00
Comm    | 0          | 0          | 0          |   0.0 |  0.00
Output  | 0          | 0          | 0          |   0.0 |  0.00
Modify  | 0          | 0          | 0          |   0.0 |  0.00
Other   |            | 6.23e-07   |            |       |100.00

Nlocal:             12 ave          12 max          12 min
Histogram: 1 0 0 0 0 0 0 0 0 0
Nghost:            570 ave         570 max         570 min
Histogram: 1 0 0 0 0 0 0 0 0 0
Neighs:            692 ave         692 max         692 min
Histogram: 1 0 0 0 0 0 0 0 0 0
FullNghs:         1384 ave        1384 max        1384 min
Histogram: 1 0 0 0 0 0 0 0 0 0

Total # of neighbors = 1384
Ave neighs/atom = 115.33333
Neighbor list builds = 0
Dangerous builds = 0
set atom * x 0.0 y 0.0 z 0.0
Setting atom values ...
  12 settings made for x
  12 settings made for y
  12 settings made for z
change_box all     x final 0 5.660460220871501 y final 0 5.660460220871501 z final 0 6.857363786777934      xy final 1.703320499647763e-63 xz final 2.5329804718149074e-47 yz final -2.746815049205968e-18 units box
Changing box ...
  triclinic box = (0 0 0) to (5.6604602 5.6801031 6.8675953) with tilt (2.1540339e-63 1.4786674e-47 -8.1915e-31)
  triclinic box = (0 0 0) to (5.6604602 5.6604602 6.8675953) with tilt (2.1540339e-63 1.4786674e-47 -8.1915e-31)
  triclinic box = (0 0 0) to (5.6604602 5.6604602 6.8573638) with tilt (2.1540339e-63 1.4786674e-47 -8.1915e-31)
  triclinic box = (0 0 0) to (5.6604602 5.6604602 6.8573638) with tilt (1.7033205e-63 1.4786674e-47 -8.1915e-31)
  triclinic box = (0 0 0) to (5.6604602 5.6604602 6.8573638) with tilt (1.7033205e-63 2.5329805e-47 -8.1915e-31)
  triclinic box = (0 0 0) to (5.6604602 5.6604602 6.8573638) with tilt (1.7033205e-63 2.5329805e-47 -2.746815e-18)
echo none
run 0
WARNING: No fixes with time integration, atoms won't move (src/verlet.cpp:60)
Per MPI rank memory allocation (min/avg/max) = 3.607 | 3.607 | 3.607 Mbytes
    PotEng          Pxx           E_mol          E_coul    
-1956.0798      635.20616      0              0            
Loop time of 6.07e-07 on 1 procs for 0 steps with 12 atoms

164.7% CPU use with 1 MPI tasks x 1 OpenMP threads

MPI task timing breakdown:
Section |  min time  |  avg time  |  max time  |%varavg| %total
---------------------------------------------------------------
Pair    | 0          | 0          | 0          |   0.0 |  0.00
Neigh   | 0          | 0          | 0          |   0.0 |  0.00
Comm    | 0          | 0          | 0          |   0.0 |  0.00
Output  | 0          | 0          | 0          |   0.0 |  0.00
Modify  | 0          | 0          | 0          |   0.0 |  0.00
Other   |            | 6.07e-07   |            |       |100.00

Nlocal:             12 ave          12 max          12 min
Histogram: 1 0 0 0 0 0 0 0 0 0
Nghost:            570 ave         570 max         570 min
Histogram: 1 0 0 0 0 0 0 0 0 0
Neighs:            712 ave         712 max         712 min
Histogram: 1 0 0 0 0 0 0 0 0 0
FullNghs:         1424 ave        1424 max        1424 min
Histogram: 1 0 0 0 0 0 0 0 0 0

Total # of neighbors = 1424
Ave neighs/atom = 118.66667
Neighbor list builds = 0
Dangerous builds = 0
set atom * x 0.0 y 0.0 z 0.0
Setting atom values ...
  12 settings made for x
  12 settings made for y
  12 settings made for z
change_box all     x final 0 5.660460220871501 y final 0 5.660460220871501 z final 0 6.857363786777936      xy final 1.7043572693827e-63 xz final 2.726386022341895e-47 yz final -2.746815049205968e-18 units box
Changing box ...
  triclinic box = (0 0 0) to (5.6604602 5.6604602 6.8573638) with tilt (1.7033205e-63 2.5329805e-47 -2.746815e-18)
  triclinic box = (0 0 0) to (5.6604602 5.6604602 6.8573638) with tilt (1.7033205e-63 2.5329805e-47 -2.746815e-18)
  triclinic box = (0 0 0) to (5.6604602 5.6604602 6.8573638) with tilt (1.7033205e-63 2.5329805e-47 -2.746815e-18)
  triclinic box = (0 0 0) to (5.6604602 5.6604602 6.8573638) with tilt (1.7043573e-63 2.5329805e-47 -2.746815e-18)
  triclinic box = (0 0 0) to (5.6604602 5.6604602 6.8573638) with tilt (1.7043573e-63 2.726386e-47 -2.746815e-18)
  triclinic box = (0 0 0) to (5.6604602 5.6604602 6.8573638) with tilt (1.7043573e-63 2.726386e-47 -2.746815e-18)
echo none
run 0
WARNING: No fixes with time integration, atoms won't move (src/verlet.cpp:60)
Per MPI rank memory allocation (min/avg/max) = 3.607 | 3.607 | 3.607 Mbytes
    PotEng          Pxx           E_mol          E_coul    
-1956.0798      635.20616      0              0            
Loop time of 6.13e-07 on 1 procs for 0 steps with 12 atoms

326.3% CPU use with 1 MPI tasks x 1 OpenMP threads

MPI task timing breakdown:
Section |  min time  |  avg time  |  max time  |%varavg| %total
---------------------------------------------------------------
Pair    | 0          | 0          | 0          |   0.0 |  0.00
Neigh   | 0          | 0          | 0          |   0.0 |  0.00
Comm    | 0          | 0          | 0          |   0.0 |  0.00
Output  | 0          | 0          | 0          |   0.0 |  0.00
Modify  | 0          | 0          | 0          |   0.0 |  0.00
Other   |            | 6.13e-07   |            |       |100.00

Nlocal:             12 ave          12 max          12 min
Histogram: 1 0 0 0 0 0 0 0 0 0
Nghost:            570 ave         570 max         570 min
Histogram: 1 0 0 0 0 0 0 0 0 0
Neighs:            712 ave         712 max         712 min
Histogram: 1 0 0 0 0 0 0 0 0 0
FullNghs:         1424 ave        1424 max        1424 min
Histogram: 1 0 0 0 0 0 0 0 0 0

Total # of neighbors = 1424
Ave neighs/atom = 118.66667
Neighbor list builds = 0
Dangerous builds = 0
set atom * x 0.0 y 0.0 z 0.0
Setting atom values ...
  12 settings made for x
  12 settings made for y
  12 settings made for z
change_box all     x final 0 5.6604602208715 y final 0 5.6604602208715 z final 0 6.857363786777934      xy final 2.549189488559343e-63 xz final 2.919791572868881e-47 yz final -2.746815049206377e-18 units box
Changing box ...
  triclinic box = (0 0 0) to (5.6604602 5.6604602 6.8573638) with tilt (1.7043573e-63 2.726386e-47 -2.746815e-18)
  triclinic box = (0 0 0) to (5.6604602 5.6604602 6.8573638) with tilt (1.7043573e-63 2.726386e-47 -2.746815e-18)
  triclinic box = (0 0 0) to (5.6604602 5.6604602 6.8573638) with tilt (1.7043573e-63 2.726386e-47 -2.746815e-18)
  triclinic box = (0 0 0) to (5.6604602 5.6604602 6.8573638) with tilt (2.5491895e-63 2.726386e-47 -2.746815e-18)
  triclinic box = (0 0 0) to (5.6604602 5.6604602 6.8573638) with tilt (2.5491895e-63 2.9197916e-47 -2.746815e-18)
  triclinic box = (0 0 0) to (5.6604602 5.6604602 6.8573638) with tilt (2.5491895e-63 2.9197916e-47 -2.746815e-18)
echo none
run 0
WARNING: No fixes with time integration, atoms won't move (src/verlet.cpp:60)
Per MPI rank memory allocation (min/avg/max) = 3.607 | 3.607 | 3.607 Mbytes
    PotEng          Pxx           E_mol          E_coul    
-1956.0798      635.20616      0              0            
Loop time of 6.42e-07 on 1 procs for 0 steps with 12 atoms

311.5% CPU use with 1 MPI tasks x 1 OpenMP threads

MPI task timing breakdown:
Section |  min time  |  avg time  |  max time  |%varavg| %total
---------------------------------------------------------------
Pair    | 0          | 0          | 0          |   0.0 |  0.00
Neigh   | 0          | 0          | 0          |   0.0 |  0.00
Comm    | 0          | 0          | 0          |   0.0 |  0.00
Output  | 0          | 0          | 0          |   0.0 |  0.00
Modify  | 0          | 0          | 0          |   0.0 |  0.00
Other   |            | 6.42e-07   |            |       |100.00

Nlocal:             12 ave          12 max          12 min
Histogram: 1 0 0 0 0 0 0 0 0 0
Nghost:            570 ave         570 max         570 min
Histogram: 1 0 0 0 0 0 0 0 0 0
Neighs:            712 ave         712 max         712 min
Histogram: 1 0 0 0 0 0 0 0 0 0
FullNghs:         1424 ave        1424 max        1424 min
Histogram: 1 0 0 0 0 0 0 0 0 0

Total # of neighbors = 1424
Ave neighs/atom = 118.66667
Neighbor list builds = 0
Dangerous builds = 0
set atom * x 0.0 y 0.0 z 0.0
Setting atom values ...
  12 settings made for x
  12 settings made for y
  12 settings made for z
change_box all     x final 0 5.660770456675509 y final 0 5.660770456675509 z final 0 6.860243178751137      xy final 2.1735580055916982e-63 xz final 2.9215908843229887e-47 yz final -2.7469655953354905e-18 units box
Changing box ...
  triclinic box = (0 0 0) to (5.6607705 5.6604602 6.8573638) with tilt (2.5491895e-63 2.9197916e-47 -2.746815e-18)
  triclinic box = (0 0 0) to (5.6607705 5.6607705 6.8573638) with tilt (2.5491895e-63 2.9197916e-47 -2.746815e-18)
  triclinic box = (0 0 0) to (5.6607705 5.6607705 6.8602432) with tilt (2.5491895e-63 2.9197916e-47 -2.746815e-18)
  triclinic box = (0 0 0) to (5.6607705 5.6607705 6.8602432) with tilt (2.173558e-63 2.9197916e-47 -2.746815e-18)
  triclinic box = (0 0 0) to (5.6607705 5.6607705 6.8602432) with tilt (2.173558e-63 2.9215909e-47 -2.746815e-18)
  triclinic box = (0 0 0) to (5.6607705 5.6607705 6.8602432) with tilt (2.173558e-63 2.9215909e-47 -2.7469656e-18)
echo none
run 0
WARNING: No fixes with time integration, atoms won't move (src/verlet.cpp:60)
Per MPI rank memory allocation (min/avg/max) = 3.607 | 3.607 | 3.607 Mbytes
    PotEng          Pxx           E_mol          E_coul    
-1956.0799      61.525894      0              0            
Loop time of 6.53e-07 on 1 procs for 0 steps with 12 atoms

153.1% CPU use with 1 MPI tasks x 1 OpenMP threads

MPI task timing breakdown:
Section |  min time  |  avg time  |  max time  |%varavg| %total
---------------------------------------------------------------
Pair    | 0          | 0          | 0          |   0.0 |  0.00
Neigh   | 0          | 0          | 0          |   0.0 |  0.00
Comm    | 0          | 0          | 0          |   0.0 |  0.00
Output  | 0          | 0          | 0          |   0.0 |  0.00
Modify  | 0          | 0          | 0          |   0.0 |  0.00
Other   |            | 6.53e-07   |            |       |100.00

Nlocal:             12 ave          12 max          12 min
Histogram: 1 0 0 0 0 0 0 0 0 0
Nghost:            570 ave         570 max         570 min
Histogram: 1 0 0 0 0 0 0 0 0 0
Neighs:            704 ave         704 max         704 min
Histogram: 1 0 0 0 0 0 0 0 0 0
FullNghs:         1408 ave        1408 max        1408 min
Histogram: 1 0 0 0 0 0 0 0 0 0

Total # of neighbors = 1408
Ave neighs/atom = 117.33333
Neighbor list builds = 0
Dangerous builds = 0
set atom * x 0.0 y 0.0 z 0.0
Setting atom values ...
  12 settings made for x
  12 settings made for y
  12 settings made for z
change_box all     x final 0 5.66077045667551 y final 0 5.66077045667551 z final 0 6.860243178751137      xy final -1.700204811638997e-63 xz final -2.8114563684642505e-47 yz final 2.754401403167763e-18 units box
Changing box ...
  triclinic box = (0 0 0) to (5.6607705 5.6607705 6.8602432) with tilt (2.173558e-63 2.9215909e-47 -2.7469656e-18)
  triclinic box = (0 0 0) to (5.6607705 5.6607705 6.8602432) with tilt (2.173558e-63 2.9215909e-47 -2.7469656e-18)
  triclinic box = (0 0 0) to (5.6607705 5.6607705 6.8602432) with tilt (2.173558e-63 2.9215909e-47 -2.7469656e-18)
  triclinic box = (0 0 0) to (5.6607705 5.6607705 6.8602432) with tilt (-1.7002048e-63 2.9215909e-47 -2.7469656e-18)
  triclinic box = (0 0 0) to (5.6607705 5.6607705 6.8602432) with tilt (-1.7002048e-63 -2.8114564e-47 -2.7469656e-18)
  triclinic box = (0 0 0) to (5.6607705 5.6607705 6.8602432) with tilt (-1.7002048e-63 -2.8114564e-47 2.7544014e-18)
echo none
run 0
WARNING: No fixes with time integration, atoms won't move (src/verlet.cpp:60)
Per MPI rank memory allocation (min/avg/max) = 3.607 | 3.607 | 3.607 Mbytes
    PotEng          Pxx           E_mol          E_coul    
-1956.0799      61.525894      0              0            
Loop time of 7.18e-07 on 1 procs for 0 steps with 12 atoms

139.3% CPU use with 1 MPI tasks x 1 OpenMP threads

MPI task timing breakdown:
Section |  min time  |  avg time  |  max time  |%varavg| %total
---------------------------------------------------------------
Pair    | 0          | 0          | 0          |   0.0 |  0.00
Neigh   | 0          | 0          | 0          |   0.0 |  0.00
Comm    | 0          | 0          | 0          |   0.0 |  0.00
Output  | 0          | 0          | 0          |   0.0 |  0.00
Modify  | 0          | 0          | 0          |   0.0 |  0.00
Other   |            | 7.18e-07   |            |       |100.00

Nlocal:             12 ave          12 max          12 min
Histogram: 1 0 0 0 0 0 0 0 0 0
Nghost:            570 ave         570 max         570 min
Histogram: 1 0 0 0 0 0 0 0 0 0
Neighs:            704 ave         704 max         704 min
Histogram: 1 0 0 0 0 0 0 0 0 0
FullNghs:         1408 ave        1408 max        1408 min
Histogram: 1 0 0 0 0 0 0 0 0 0

Total # of neighbors = 1408
Ave neighs/atom = 117.33333
Neighbor list builds = 0
Dangerous builds = 0
set atom * x 0.0 y 0.0 z 0.0
Setting atom values ...
  12 settings made for x
  12 settings made for y
  12 settings made for z
change_box all     x final 0 5.6131987079301435 y final 0 5.6131987079301435 z final 0 6.802591350730658      xy final -1.6859167007300705e-63 xz final -2.7878295676616467e-47 yz final 2.731254078523841e-18 units box
Changing box ...
  triclinic box = (0 0 0) to (5.6131987 5.6607705 6.8602432) with tilt (-1.7002048e-63 -2.8114564e-47 2.7544014e-18)
  triclinic box = (0 0 0) to (5.6131987 5.6131987 6.8602432) with tilt (-1.7002048e-63 -2.8114564e-47 2.7544014e-18)
  triclinic box = (0 0 0) to (5.6131987 5.6131987 6.8025914) with tilt (-1.7002048e-63 -2.8114564e-47 2.7544014e-18)
  triclinic box = (0 0 0) to (5.6131987 5.6131987 6.8025914) with tilt (-1.6859167e-63 -2.8114564e-47 2.7544014e-18)
  triclinic box = (0 0 0) to (5.6131987 5.6131987 6.8025914) with tilt (-1.6859167e-63 -2.7878296e-47 2.7544014e-18)
  triclinic box = (0 0 0) to (5.6131987 5.6131987 6.8025914) with tilt (-1.6859167e-63 -2.7878296e-47 2.7312541e-18)
echo none
run 0
WARNING: No fixes with time integration, atoms won't move (src/verlet.cpp:60)
Per MPI rank memory allocation (min/avg/max) = 3.607 | 3.607 | 3.607 Mbytes
    PotEng          Pxx           E_mol          E_coul    
-1956.0358      25705.144      0              0            
Loop time of 7.02e-07 on 1 procs for 0 steps with 12 atoms

142.5% CPU use with 1 MPI tasks x 1 OpenMP threads

MPI task timing breakdown:
Section |  min time  |  avg time  |  max time  |%varavg| %total
---------------------------------------------------------------
Pair    | 0          | 0          | 0          |   0.0 |  0.00
Neigh   | 0          | 0          | 0          |   0.0 |  0.00
Comm    | 0          | 0          | 0          |   0.0 |  0.00
Output  | 0          | 0          | 0          |   0.0 |  0.00
Modify  | 0          | 0          | 0          |   0.0 |  0.00
Other   |            | 7.02e-07   |            |       |100.00

Nlocal:             12 ave          12 max          12 min
Histogram: 1 0 0 0 0 0 0 0 0 0
Nghost:            612 ave         612 max         612 min
Histogram: 1 0 0 0 0 0 0 0 0 0
Neighs:            752 ave         752 max         752 min
Histogram: 1 0 0 0 0 0 0 0 0 0
FullNghs:         1504 ave        1504 max        1504 min
Histogram: 1 0 0 0 0 0 0 0 0 0

Total # of neighbors = 1504
Ave neighs/atom = 125.33333
Neighbor list builds = 0
Dangerous builds = 0
set atom * x 0.0 y 0.0 z 0.0
Setting atom values ...
  12 settings made for x
  12 settings made for y
  12 settings made for z
change_box all     x final 0 5.50204992652032 y final 0 5.50204992652032 z final 0 7.0802103702684205      xy final -1.6517968300200075e-63 xz final -2.95492669563433e-47 yz final 2.677171624232734e-18 units box
Changing box ...
  triclinic box = (0 0 0) to (5.5020499 5.6131987 6.8025914) with tilt (-1.6859167e-63 -2.7878296e-47 2.7312541e-18)
  triclinic box = (0 0 0) to (5.5020499 5.5020499 6.8025914) with tilt (-1.6859167e-63 -2.7878296e-47 2.7312541e-18)
  triclinic box = (0 0 0) to (5.5020499 5.5020499 7.0802104) with tilt (-1.6859167e-63 -2.7878296e-47 2.7312541e-18)
  triclinic box = (0 0 0) to (5.5020499 5.5020499 7.0802104) with tilt (-1.6517968e-63 -2.7878296e-47 2.7312541e-18)
  triclinic box = (0 0 0) to (5.5020499 5.5020499 7.0802104) with tilt (-1.6517968e-63 -2.9549267e-47 2.7312541e-18)
  triclinic box = (0 0 0) to (5.5020499 5.5020499 7.0802104) with tilt (-1.6517968e-63 -2.9549267e-47 2.6771716e-18)
echo none
run 0
WARNING: No fixes with time integration, atoms won't move (src/verlet.cpp:60)
Per MPI rank memory allocation (min/avg/max) = 3.607 | 3.607 | 3.607 Mbytes
    PotEng          Pxx           E_mol          E_coul    
-1955.7502      56310.199      0              0            
Loop time of 7e-07 on 1 procs for 0 steps with 12 atoms

285.7% CPU use with 1 MPI tasks x 1 OpenMP threads

MPI task timing breakdown:
Section |  min time  |  avg time  |  max time  |%varavg| %total
---------------------------------------------------------------
Pair    | 0          | 0          | 0          |   0.0 |  0.00
Neigh   | 0          | 0          | 0          |   0.0 |  0.00
Comm    | 0          | 0          | 0          |   0.0 |  0.00
Output  | 0          | 0          | 0          |   0.0 |  0.00
Modify  | 0          | 0          | 0          |   0.0 |  0.00
Other   |            | 7e-07      |            |       |100.00

Nlocal:             12 ave          12 max          12 min
Histogram: 1 0 0 0 0 0 0 0 0 0
Nghost:            612 ave         612 max         612 min
Histogram: 1 0 0 0 0 0 0 0 0 0
Neighs:            736 ave         736 max         736 min
Histogram: 1 0 0 0 0 0 0 0 0 0
FullNghs:         1472 ave        1472 max        1472 min
Histogram: 1 0 0 0 0 0 0 0 0 0

Total # of neighbors = 1472
Ave neighs/atom = 122.66667
Neighbor list builds = 0
Dangerous builds = 0
set atom * x 0.0 y 0.0 z 0.0
Setting atom values ...
  12 settings made for x
  12 settings made for y
  12 settings made for z
change_box all     x final 0 5.608734077853369 y final 0 5.608734077853369 z final 0 6.813425575143054      xy final -1.6846256547567472e-63 xz final -2.7705504812712144e-47 yz final 2.7290816916655133e-18 units box
Changing box ...
  triclinic box = (0 0 0) to (5.6087341 5.5020499 7.0802104) with tilt (-1.6517968e-63 -2.9549267e-47 2.6771716e-18)
  triclinic box = (0 0 0) to (5.6087341 5.6087341 7.0802104) with tilt (-1.6517968e-63 -2.9549267e-47 2.6771716e-18)
  triclinic box = (0 0 0) to (5.6087341 5.6087341 6.8134256) with tilt (-1.6517968e-63 -2.9549267e-47 2.6771716e-18)
  triclinic box = (0 0 0) to (5.6087341 5.6087341 6.8134256) with tilt (-1.6846257e-63 -2.9549267e-47 2.6771716e-18)
  triclinic box = (0 0 0) to (5.6087341 5.6087341 6.8134256) with tilt (-1.6846257e-63 -2.7705505e-47 2.6771716e-18)
  triclinic box = (0 0 0) to (5.6087341 5.6087341 6.8134256) with tilt (-1.6846257e-63 -2.7705505e-47 2.7290817e-18)
echo none
run 0
WARNING: No fixes with time integration, atoms won't move (src/verlet.cpp:60)
Per MPI rank memory allocation (min/avg/max) = 3.607 | 3.607 | 3.607 Mbytes
    PotEng          Pxx           E_mol          E_coul    
-1956.0363      26702.963      0              0            
Loop time of 1.257e-06 on 1 procs for 0 steps with 12 atoms

159.1% CPU use with 1 MPI tasks x 1 OpenMP threads

MPI task timing breakdown:
Section |  min time  |  avg time  |  max time  |%varavg| %total
---------------------------------------------------------------
Pair    | 0          | 0          | 0          |   0.0 |  0.00
Neigh   | 0          | 0          | 0          |   0.0 |  0.00
Comm    | 0          | 0          | 0          |   0.0 |  0.00
Output  | 0          | 0          | 0          |   0.0 |  0.00
Modify  | 0          | 0          | 0          |   0.0 |  0.00
Other   |            | 1.257e-06  |            |       |100.00

Nlocal:             12 ave          12 max          12 min
Histogram: 1 0 0 0 0 0 0 0 0 0
Nghost:            612 ave         612 max         612 min
Histogram: 1 0 0 0 0 0 0 0 0 0
Neighs:            752 ave         752 max         752 min
Histogram: 1 0 0 0 0 0 0 0 0 0
FullNghs:         1504 ave        1504 max        1504 min
Histogram: 1 0 0 0 0 0 0 0 0 0

Total # of neighbors = 1504
Ave neighs/atom = 125.33333
Neighbor list builds = 0
Dangerous builds = 0
set atom * x 0.0 y 0.0 z 0.0
Setting atom values ...
  12 settings made for x
  12 settings made for y
  12 settings made for z
change_box all     x final 0 5.608734077853369 y final 0 5.608734077853369 z final 0 6.813425575143051      xy final -1.6846256547567432e-63 xz final -2.7705504812712125e-47 yz final 2.729081691664697e-18 units box
Changing box ...
  triclinic box = (0 0 0) to (5.6087341 5.6087341 6.8134256) with tilt (-1.6846257e-63 -2.7705505e-47 2.7290817e-18)
  triclinic box = (0 0 0) to (5.6087341 5.6087341 6.8134256) with tilt (-1.6846257e-63 -2.7705505e-47 2.7290817e-18)
  triclinic box = (0 0 0) to (5.6087341 5.6087341 6.8134256) with tilt (-1.6846257e-63 -2.7705505e-47 2.7290817e-18)
  triclinic box = (0 0 0) to (5.6087341 5.6087341 6.8134256) with tilt (-1.6846257e-63 -2.7705505e-47 2.7290817e-18)
  triclinic box = (0 0 0) to (5.6087341 5.6087341 6.8134256) with tilt (-1.6846257e-63 -2.7705505e-47 2.7290817e-18)
  triclinic box = (0 0 0) to (5.6087341 5.6087341 6.8134256) with tilt (-1.6846257e-63 -2.7705505e-47 2.7290817e-18)
echo none
run 0
WARNING: No fixes with time integration, atoms won't move (src/verlet.cpp:60)
Per MPI rank memory allocation (min/avg/max) = 3.607 | 3.607 | 3.607 Mbytes
    PotEng          Pxx           E_mol          E_coul    
-1956.0363      26702.963      0              0            
Loop time of 6.2e-07 on 1 procs for 0 steps with 12 atoms

161.3% CPU use with 1 MPI tasks x 1 OpenMP threads

MPI task timing breakdown:
Section |  min time  |  avg time  |  max time  |%varavg| %total
---------------------------------------------------------------
Pair    | 0          | 0          | 0          |   0.0 |  0.00
Neigh   | 0          | 0          | 0          |   0.0 |  0.00
Comm    | 0          | 0          | 0          |   0.0 |  0.00
Output  | 0          | 0          | 0          |   0.0 |  0.00
Modify  | 0          | 0          | 0          |   0.0 |  0.00
Other   |            | 6.2e-07    |            |       |100.00

Nlocal:             12 ave          12 max          12 min
Histogram: 1 0 0 0 0 0 0 0 0 0
Nghost:            612 ave         612 max         612 min
Histogram: 1 0 0 0 0 0 0 0 0 0
Neighs:            752 ave         752 max         752 min
Histogram: 1 0 0 0 0 0 0 0 0 0
FullNghs:         1504 ave        1504 max        1504 min
Histogram: 1 0 0 0 0 0 0 0 0 0

Total # of neighbors = 1504
Ave neighs/atom = 125.33333
Neighbor list builds = 0
Dangerous builds = 0
set atom * x 0.0 y 0.0 z 0.0
Setting atom values ...
  12 settings made for x
  12 settings made for y
  12 settings made for z
change_box all     x final 0 5.608734077853369 y final 0 5.608734077853369 z final 0 6.813425575143054      xy final -1.6846256547567432e-63 xz final -2.7705504812712144e-47 yz final 2.729081691664697e-18 units box
Changing box ...
  triclinic box = (0 0 0) to (5.6087341 5.6087341 6.8134256) with tilt (-1.6846257e-63 -2.7705505e-47 2.7290817e-18)
  triclinic box = (0 0 0) to (5.6087341 5.6087341 6.8134256) with tilt (-1.6846257e-63 -2.7705505e-47 2.7290817e-18)
  triclinic box = (0 0 0) to (5.6087341 5.6087341 6.8134256) with tilt (-1.6846257e-63 -2.7705505e-47 2.7290817e-18)
  triclinic box = (0 0 0) to (5.6087341 5.6087341 6.8134256) with tilt (-1.6846257e-63 -2.7705505e-47 2.7290817e-18)
  triclinic box = (0 0 0) to (5.6087341 5.6087341 6.8134256) with tilt (-1.6846257e-63 -2.7705505e-47 2.7290817e-18)
  triclinic box = (0 0 0) to (5.6087341 5.6087341 6.8134256) with tilt (-1.6846257e-63 -2.7705505e-47 2.7290817e-18)
echo none
run 0
WARNING: No fixes with time integration, atoms won't move (src/verlet.cpp:60)
Per MPI rank memory allocation (min/avg/max) = 3.607 | 3.607 | 3.607 Mbytes
    PotEng          Pxx           E_mol          E_coul    
-1956.0363      26702.963      0              0            
Loop time of 6.07e-07 on 1 procs for 0 steps with 12 atoms

164.7% CPU use with 1 MPI tasks x 1 OpenMP threads

MPI task timing breakdown:
Section |  min time  |  avg time  |  max time  |%varavg| %total
---------------------------------------------------------------
Pair    | 0          | 0          | 0          |   0.0 |  0.00
Neigh   | 0          | 0          | 0          |   0.0 |  0.00
Comm    | 0          | 0          | 0          |   0.0 |  0.00
Output  | 0          | 0          | 0          |   0.0 |  0.00
Modify  | 0          | 0          | 0          |   0.0 |  0.00
Other   |            | 6.07e-07   |            |       |100.00

Nlocal:             12 ave          12 max          12 min
Histogram: 1 0 0 0 0 0 0 0 0 0
Nghost:            612 ave         612 max         612 min
Histogram: 1 0 0 0 0 0 0 0 0 0
Neighs:            752 ave         752 max         752 min
Histogram: 1 0 0 0 0 0 0 0 0 0
FullNghs:         1504 ave        1504 max        1504 min
Histogram: 1 0 0 0 0 0 0 0 0 0

Total # of neighbors = 1504
Ave neighs/atom = 125.33333
Neighbor list builds = 0
Dangerous builds = 0
set atom * x 0.0 y 0.0 z 0.0
Setting atom values ...
  12 settings made for x
  12 settings made for y
  12 settings made for z
change_box all     x final 0 5.627495731766691 y final 0 5.627495731766692 z final 0 6.768070394464279      xy final -1.6093710014675925e-63 xz final -2.743334199904707e-47 yz final -9.495770087266574e-18 units box
Changing box ...
  triclinic box = (0 0 0) to (5.6274957 5.6087341 6.8134256) with tilt (-1.6846257e-63 -2.7705505e-47 2.7290817e-18)
  triclinic box = (0 0 0) to (5.6274957 5.6274957 6.8134256) with tilt (-1.6846257e-63 -2.7705505e-47 2.7290817e-18)
  triclinic box = (0 0 0) to (5.6274957 5.6274957 6.7680704) with tilt (-1.6846257e-63 -2.7705505e-47 2.7290817e-18)
  triclinic box = (0 0 0) to (5.6274957 5.6274957 6.7680704) with tilt (-1.609371e-63 -2.7705505e-47 2.7290817e-18)
  triclinic box = (0 0 0) to (5.6274957 5.6274957 6.7680704) with tilt (-1.609371e-63 -2.7433342e-47 2.7290817e-18)
  triclinic box = (0 0 0) to (5.6274957 5.6274957 6.7680704) with tilt (-1.609371e-63 -2.7433342e-47 -9.4957701e-18)
echo none
run 0
WARNING: No fixes with time integration, atoms won't move (src/verlet.cpp:60)
Per MPI rank memory allocation (min/avg/max) = 3.607 | 3.607 | 3.607 Mbytes
    PotEng          Pxx           E_mol          E_coul    
-1956.0145      16212.011      0              0            
Loop time of 6.44e-07 on 1 procs for 0 steps with 12 atoms

310.6% CPU use with 1 MPI tasks x 1 OpenMP threads

MPI task timing breakdown:
Section |  min time  |  avg time  |  max time  |%varavg| %total
---------------------------------------------------------------
Pair    | 0          | 0          | 0          |   0.0 |  0.00
Neigh   | 0          | 0          | 0          |   0.0 |  0.00
Comm    | 0          | 0          | 0          |   0.0 |  0.00
Output  | 0          | 0          | 0          |   0.0 |  0.00
Modify  | 0          | 0          | 0          |   0.0 |  0.00
Other   |            | 6.44e-07   |            |       |100.00

Nlocal:             12 ave          12 max          12 min
Histogram: 1 0 0 0 0 0 0 0 0 0
Nghost:            612 ave         612 max         612 min
Histogram: 1 0 0 0 0 0 0 0 0 0
Neighs:            752 ave         752 max         752 min
Histogram: 1 0 0 0 0 0 0 0 0 0
FullNghs:         1504 ave        1504 max        1504 min
Histogram: 1 0 0 0 0 0 0 0 0 0

Total # of neighbors = 1504
Ave neighs/atom = 125.33333
Neighbor list builds = 0
Dangerous builds = 0
set atom * x 0.0 y 0.0 z 0.0
Setting atom values ...
  12 settings made for x
  12 settings made for y
  12 settings made for z
change_box all     x final 0 5.613671717308251 y final 0 5.613671717308252 z final 0 6.801445022942092      xy final -1.6049389712327213e-63 xz final -2.7629014446045085e-47 yz final -9.47244360791654e-18 units box
Changing box ...
  triclinic box = (0 0 0) to (5.6136717 5.6274957 6.7680704) with tilt (-1.609371e-63 -2.7433342e-47 -9.4957701e-18)
  triclinic box = (0 0 0) to (5.6136717 5.6136717 6.7680704) with tilt (-1.609371e-63 -2.7433342e-47 -9.4957701e-18)
  triclinic box = (0 0 0) to (5.6136717 5.6136717 6.801445) with tilt (-1.609371e-63 -2.7433342e-47 -9.4957701e-18)
  triclinic box = (0 0 0) to (5.6136717 5.6136717 6.801445) with tilt (-1.604939e-63 -2.7433342e-47 -9.4957701e-18)
  triclinic box = (0 0 0) to (5.6136717 5.6136717 6.801445) with tilt (-1.604939e-63 -2.7629014e-47 -9.4957701e-18)
  triclinic box = (0 0 0) to (5.6136717 5.6136717 6.801445) with tilt (-1.604939e-63 -2.7629014e-47 -9.4724436e-18)
echo none
run 0
WARNING: No fixes with time integration, atoms won't move (src/verlet.cpp:60)
Per MPI rank memory allocation (min/avg/max) = 3.607 | 3.607 | 3.607 Mbytes
    PotEng          Pxx           E_mol          E_coul    
-1956.0396      23897.712      0              0            
Loop time of 5.96e-07 on 1 procs for 0 steps with 12 atoms

335.6% CPU use with 1 MPI tasks x 1 OpenMP threads

MPI task timing breakdown:
Section |  min time  |  avg time  |  max time  |%varavg| %total
---------------------------------------------------------------
Pair    | 0          | 0          | 0          |   0.0 |  0.00
Neigh   | 0          | 0          | 0          |   0.0 |  0.00
Comm    | 0          | 0          | 0          |   0.0 |  0.00
Output  | 0          | 0          | 0          |   0.0 |  0.00
Modify  | 0          | 0          | 0          |   0.0 |  0.00
Other   |            | 5.96e-07   |            |       |100.00

Nlocal:             12 ave          12 max          12 min
Histogram: 1 0 0 0 0 0 0 0 0 0
Nghost:            612 ave         612 max         612 min
Histogram: 1 0 0 0 0 0 0 0 0 0
Neighs:            752 ave         752 max         752 min
Histogram: 1 0 0 0 0 0 0 0 0 0
FullNghs:         1504 ave        1504 max        1504 min
Histogram: 1 0 0 0 0 0 0 0 0 0

Total # of neighbors = 1504
Ave neighs/atom = 125.33333
Neighbor list builds = 0
Dangerous builds = 0
set atom * x 0.0 y 0.0 z 0.0
Setting atom values ...
  12 settings made for x
  12 settings made for y
  12 settings made for z
change_box all     x final 0 5.613671717308251 y final 0 5.613671717308252 z final 0 6.80144502294209      xy final -1.6049389712327238e-63 xz final -2.7629014446045075e-47 yz final -9.472443607916457e-18 units box
Changing box ...
  triclinic box = (0 0 0) to (5.6136717 5.6136717 6.801445) with tilt (-1.604939e-63 -2.7629014e-47 -9.4724436e-18)
  triclinic box = (0 0 0) to (5.6136717 5.6136717 6.801445) with tilt (-1.604939e-63 -2.7629014e-47 -9.4724436e-18)
  triclinic box = (0 0 0) to (5.6136717 5.6136717 6.801445) with tilt (-1.604939e-63 -2.7629014e-47 -9.4724436e-18)
  triclinic box = (0 0 0) to (5.6136717 5.6136717 6.801445) with tilt (-1.604939e-63 -2.7629014e-47 -9.4724436e-18)
  triclinic box = (0 0 0) to (5.6136717 5.6136717 6.801445) with tilt (-1.604939e-63 -2.7629014e-47 -9.4724436e-18)
  triclinic box = (0 0 0) to (5.6136717 5.6136717 6.801445) with tilt (-1.604939e-63 -2.7629014e-47 -9.4724436e-18)
echo none
run 0
WARNING: No fixes with time integration, atoms won't move (src/verlet.cpp:60)
Per MPI rank memory allocation (min/avg/max) = 3.607 | 3.607 | 3.607 Mbytes
    PotEng          Pxx           E_mol          E_coul    
-1956.0396      23897.712      0              0            
Loop time of 6.11e-07 on 1 procs for 0 steps with 12 atoms

163.7% CPU use with 1 MPI tasks x 1 OpenMP threads

MPI task timing breakdown:
Section |  min time  |  avg time  |  max time  |%varavg| %total
---------------------------------------------------------------
Pair    | 0          | 0          | 0          |   0.0 |  0.00
Neigh   | 0          | 0          | 0          |   0.0 |  0.00
Comm    | 0          | 0          | 0          |   0.0 |  0.00
Output  | 0          | 0          | 0          |   0.0 |  0.00
Modify  | 0          | 0          | 0          |   0.0 |  0.00
Other   |            | 6.11e-07   |            |       |100.00

Nlocal:             12 ave          12 max          12 min
Histogram: 1 0 0 0 0 0 0 0 0 0
Nghost:            612 ave         612 max         612 min
Histogram: 1 0 0 0 0 0 0 0 0 0
Neighs:            752 ave         752 max         752 min
Histogram: 1 0 0 0 0 0 0 0 0 0
FullNghs:         1504 ave        1504 max        1504 min
Histogram: 1 0 0 0 0 0 0 0 0 0

Total # of neighbors = 1504
Ave neighs/atom = 125.33333
Neighbor list builds = 0
Dangerous builds = 0
set atom * x 0.0 y 0.0 z 0.0
Setting atom values ...
  12 settings made for x
  12 settings made for y
  12 settings made for z
change_box all     x final 0 5.599140786369149 y final 0 5.59914078636915 z final 0 6.836793150657057      xy final -1.6002710113771286e-63 xz final -2.783979909416892e-47 yz final -9.447924286014039e-18 units box
Changing box ...
  triclinic box = (0 0 0) to (5.5991408 5.6136717 6.801445) with tilt (-1.604939e-63 -2.7629014e-47 -9.4724436e-18)
  triclinic box = (0 0 0) to (5.5991408 5.5991408 6.801445) with tilt (-1.604939e-63 -2.7629014e-47 -9.4724436e-18)
  triclinic box = (0 0 0) to (5.5991408 5.5991408 6.8367932) with tilt (-1.604939e-63 -2.7629014e-47 -9.4724436e-18)
  triclinic box = (0 0 0) to (5.5991408 5.5991408 6.8367932) with tilt (-1.600271e-63 -2.7629014e-47 -9.4724436e-18)
  triclinic box = (0 0 0) to (5.5991408 5.5991408 6.8367932) with tilt (-1.600271e-63 -2.7839799e-47 -9.4724436e-18)
  triclinic box = (0 0 0) to (5.5991408 5.5991408 6.8367932) with tilt (-1.600271e-63 -2.7839799e-47 -9.4479243e-18)
echo none
run 0
WARNING: No fixes with time integration, atoms won't move (src/verlet.cpp:60)
Per MPI rank memory allocation (min/avg/max) = 3.607 | 3.607 | 3.607 Mbytes
    PotEng          Pxx           E_mol          E_coul    
-1955.998       19414.602      0              0            
Loop time of 6.03e-07 on 1 procs for 0 steps with 12 atoms

331.7% CPU use with 1 MPI tasks x 1 OpenMP threads

MPI task timing breakdown:
Section |  min time  |  avg time  |  max time  |%varavg| %total
---------------------------------------------------------------
Pair    | 0          | 0          | 0          |   0.0 |  0.00
Neigh   | 0          | 0          | 0          |   0.0 |  0.00
Comm    | 0          | 0          | 0          |   0.0 |  0.00
Output  | 0          | 0          | 0          |   0.0 |  0.00
Modify  | 0          | 0          | 0          |   0.0 |  0.00
Other   |            | 6.03e-07   |            |       |100.00

Nlocal:             12 ave          12 max          12 min
Histogram: 1 0 0 0 0 0 0 0 0 0
Nghost:            612 ave         612 max         612 min
Histogram: 1 0 0 0 0 0 0 0 0 0
Neighs:            752 ave         752 max         752 min
Histogram: 1 0 0 0 0 0 0 0 0 0
FullNghs:         1504 ave        1504 max        1504 min
Histogram: 1 0 0 0 0 0 0 0 0 0

Total # of neighbors = 1504
Ave neighs/atom = 125.33333
Neighbor list builds = 0
Dangerous builds = 0
set atom * x 0.0 y 0.0 z 0.0
Setting atom values ...
  12 settings made for x
  12 settings made for y
  12 settings made for z
change_box all     x final 0 5.599140786369149 y final 0 5.59914078636915 z final 0 6.8367931506570585      xy final -1.6002710113771286e-63 xz final -2.783979909416893e-47 yz final -9.447924286014039e-18 units box
Changing box ...
  triclinic box = (0 0 0) to (5.5991408 5.5991408 6.8367932) with tilt (-1.600271e-63 -2.7839799e-47 -9.4479243e-18)
  triclinic box = (0 0 0) to (5.5991408 5.5991408 6.8367932) with tilt (-1.600271e-63 -2.7839799e-47 -9.4479243e-18)
  triclinic box = (0 0 0) to (5.5991408 5.5991408 6.8367932) with tilt (-1.600271e-63 -2.7839799e-47 -9.4479243e-18)
  triclinic box = (0 0 0) to (5.5991408 5.5991408 6.8367932) with tilt (-1.600271e-63 -2.7839799e-47 -9.4479243e-18)
  triclinic box = (0 0 0) to (5.5991408 5.5991408 6.8367932) with tilt (-1.600271e-63 -2.7839799e-47 -9.4479243e-18)
  triclinic box = (0 0 0) to (5.5991408 5.5991408 6.8367932) with tilt (-1.600271e-63 -2.7839799e-47 -9.4479243e-18)
echo none
run 0
WARNING: No fixes with time integration, atoms won't move (src/verlet.cpp:60)
Per MPI rank memory allocation (min/avg/max) = 3.607 | 3.607 | 3.607 Mbytes
    PotEng          Pxx           E_mol          E_coul    
-1955.998       19414.602      0              0            
Loop time of 6.35e-07 on 1 procs for 0 steps with 12 atoms

157.5% CPU use with 1 MPI tasks x 1 OpenMP threads

MPI task timing breakdown:
Section |  min time  |  avg time  |  max time  |%varavg| %total
---------------------------------------------------------------
Pair    | 0          | 0          | 0          |   0.0 |  0.00
Neigh   | 0          | 0          | 0          |   0.0 |  0.00
Comm    | 0          | 0          | 0          |   0.0 |  0.00
Output  | 0          | 0          | 0          |   0.0 |  0.00
Modify  | 0          | 0          | 0          |   0.0 |  0.00
Other   |            | 6.35e-07   |            |       |100.00

Nlocal:             12 ave          12 max          12 min
Histogram: 1 0 0 0 0 0 0 0 0 0
Nghost:            612 ave         612 max         612 min
Histogram: 1 0 0 0 0 0 0 0 0 0
Neighs:            752 ave         752 max         752 min
Histogram: 1 0 0 0 0 0 0 0 0 0
FullNghs:         1504 ave        1504 max        1504 min
Histogram: 1 0 0 0 0 0 0 0 0 0

Total # of neighbors = 1504
Ave neighs/atom = 125.33333
Neighbor list builds = 0
Dangerous builds = 0
set atom * x 0.0 y 0.0 z 0.0
Setting atom values ...
  12 settings made for x
  12 settings made for y
  12 settings made for z
change_box all     x final 0 5.611830169402445 y final 0 5.611830169402446 z final 0 6.805909606352196      xy final -1.6043536259930795e-63 xz final -2.7652298392352956e-47 yz final -9.469336201647001e-18 units box
Changing box ...
  triclinic box = (0 0 0) to (5.6118302 5.5991408 6.8367932) with tilt (-1.600271e-63 -2.7839799e-47 -9.4479243e-18)
  triclinic box = (0 0 0) to (5.6118302 5.6118302 6.8367932) with tilt (-1.600271e-63 -2.7839799e-47 -9.4479243e-18)
  triclinic box = (0 0 0) to (5.6118302 5.6118302 6.8059096) with tilt (-1.600271e-63 -2.7839799e-47 -9.4479243e-18)
  triclinic box = (0 0 0) to (5.6118302 5.6118302 6.8059096) with tilt (-1.6043536e-63 -2.7839799e-47 -9.4479243e-18)
  triclinic box = (0 0 0) to (5.6118302 5.6118302 6.8059096) with tilt (-1.6043536e-63 -2.7652298e-47 -9.4479243e-18)
  triclinic box = (0 0 0) to (5.6118302 5.6118302 6.8059096) with tilt (-1.6043536e-63 -2.7652298e-47 -9.4693362e-18)
echo none
run 0
WARNING: No fixes with time integration, atoms won't move (src/verlet.cpp:60)
Per MPI rank memory allocation (min/avg/max) = 3.607 | 3.607 | 3.607 Mbytes
    PotEng          Pxx           E_mol          E_coul    
-1956.0405      23352.466      0              0            
Loop time of 6.61e-07 on 1 procs for 0 steps with 12 atoms

151.3% CPU use with 1 MPI tasks x 1 OpenMP threads

MPI task timing breakdown:
Section |  min time  |  avg time  |  max time  |%varavg| %total
---------------------------------------------------------------
Pair    | 0          | 0          | 0          |   0.0 |  0.00
Neigh   | 0          | 0          | 0          |   0.0 |  0.00
Comm    | 0          | 0          | 0          |   0.0 |  0.00
Output  | 0          | 0          | 0          |   0.0 |  0.00
Modify  | 0          | 0          | 0          |   0.0 |  0.00
Other   |            | 6.61e-07   |            |       |100.00

Nlocal:             12 ave          12 max          12 min
Histogram: 1 0 0 0 0 0 0 0 0 0
Nghost:            612 ave         612 max         612 min
Histogram: 1 0 0 0 0 0 0 0 0 0
Neighs:            752 ave         752 max         752 min
Histogram: 1 0 0 0 0 0 0 0 0 0
FullNghs:         1504 ave        1504 max        1504 min
Histogram: 1 0 0 0 0 0 0 0 0 0

Total # of neighbors = 1504
Ave neighs/atom = 125.33333
Neighbor list builds = 0
Dangerous builds = 0
set atom * x 0.0 y 0.0 z 0.0
Setting atom values ...
  12 settings made for x
  12 settings made for y
  12 settings made for z
change_box all     x final 0 5.626180227270099 y final 0 5.626180227270099 z final 0 6.771235763354039      xy final 2.2648447167679954e-62 xz final -2.744508856414951e-47 yz final -9.493550320456892e-18 units box
Changing box ...
  triclinic box = (0 0 0) to (5.6261802 5.6118302 6.8059096) with tilt (-1.6043536e-63 -2.7652298e-47 -9.4693362e-18)
  triclinic box = (0 0 0) to (5.6261802 5.6261802 6.8059096) with tilt (-1.6043536e-63 -2.7652298e-47 -9.4693362e-18)
  triclinic box = (0 0 0) to (5.6261802 5.6261802 6.7712358) with tilt (-1.6043536e-63 -2.7652298e-47 -9.4693362e-18)
  triclinic box = (0 0 0) to (5.6261802 5.6261802 6.7712358) with tilt (2.2648447e-62 -2.7652298e-47 -9.4693362e-18)
  triclinic box = (0 0 0) to (5.6261802 5.6261802 6.7712358) with tilt (2.2648447e-62 -2.7445089e-47 -9.4693362e-18)
  triclinic box = (0 0 0) to (5.6261802 5.6261802 6.7712358) with tilt (2.2648447e-62 -2.7445089e-47 -9.4935503e-18)
echo none
run 0
WARNING: No fixes with time integration, atoms won't move (src/verlet.cpp:60)
Per MPI rank memory allocation (min/avg/max) = 3.607 | 3.607 | 3.607 Mbytes
    PotEng          Pxx           E_mol          E_coul    
-1956.0165      21769.573      0              0            
Loop time of 6.34e-07 on 1 procs for 0 steps with 12 atoms

157.7% CPU use with 1 MPI tasks x 1 OpenMP threads

MPI task timing breakdown:
Section |  min time  |  avg time  |  max time  |%varavg| %total
---------------------------------------------------------------
Pair    | 0          | 0          | 0          |   0.0 |  0.00
Neigh   | 0          | 0          | 0          |   0.0 |  0.00
Comm    | 0          | 0          | 0          |   0.0 |  0.00
Output  | 0          | 0          | 0          |   0.0 |  0.00
Modify  | 0          | 0          | 0          |   0.0 |  0.00
Other   |            | 6.34e-07   |            |       |100.00

Nlocal:             12 ave          12 max          12 min
Histogram: 1 0 0 0 0 0 0 0 0 0
Nghost:            612 ave         612 max         612 min
Histogram: 1 0 0 0 0 0 0 0 0 0
Neighs:            752 ave         752 max         752 min
Histogram: 1 0 0 0 0 0 0 0 0 0
FullNghs:         1504 ave        1504 max        1504 min
Histogram: 1 0 0 0 0 0 0 0 0 0

Total # of neighbors = 1504
Ave neighs/atom = 125.33333
Neighbor list builds = 0
Dangerous builds = 0
set atom * x 0.0 y 0.0 z 0.0
Setting atom values ...
  12 settings made for x
  12 settings made for y
  12 settings made for z
change_box all     x final 0 5.612920344760556 y final 0 5.612920344760556 z final 0 6.803266093192024      xy final 1.6476388298862792e-63 xz final -2.763313569120891e-47 yz final -2.5742215188323376e-17 units box
Changing box ...
  triclinic box = (0 0 0) to (5.6129203 5.6261802 6.7712358) with tilt (2.2648447e-62 -2.7445089e-47 -9.4935503e-18)
  triclinic box = (0 0 0) to (5.6129203 5.6129203 6.7712358) with tilt (2.2648447e-62 -2.7445089e-47 -9.4935503e-18)
[...]
Loop time of 6.23e-07 on 1 procs for 0 steps with 12 atoms

160.5% CPU use with 1 MPI tasks x 1 OpenMP threads

MPI task timing breakdown:
Section |  min time  |  avg time  |  max time  |%varavg| %total
---------------------------------------------------------------
Pair    | 0          | 0          | 0          |   0.0 |  0.00
Neigh   | 0          | 0          | 0          |   0.0 |  0.00
Comm    | 0          | 0          | 0          |   0.0 |  0.00
Output  | 0          | 0          | 0          |   0.0 |  0.00
Modify  | 0          | 0          | 0          |   0.0 |  0.00
Other   |            | 6.23e-07   |            |       |100.00

Nlocal:             12 ave          12 max          12 min
Histogram: 1 0 0 0 0 0 0 0 0 0
Nghost:            570 ave         570 max         570 min
Histogram: 1 0 0 0 0 0 0 0 0 0
Neighs:            704 ave         704 max         704 min
Histogram: 1 0 0 0 0 0 0 0 0 0
FullNghs:         1408 ave        1408 max        1408 min
Histogram: 1 0 0 0 0 0 0 0 0 0

Total # of neighbors = 1408
Ave neighs/atom = 117.33333
Neighbor list builds = 0
Dangerous builds = 0
set atom * x 0.0 y 0.0 z 0.0
Setting atom values ...
  12 settings made for x
  12 settings made for y
  12 settings made for z
change_box all     x final 0 5.660841215863976 y final 0 5.660558180879058 z final 0 6.928845610538649      xy final 0.05660699698371517 xz final -2.7469312589093555e-20 yz final -5.5567328255967005e-18 units box
Changing box ...
  triclinic box = (0 0 0) to (5.6608412 5.6607705 6.8602432) with tilt (2.2003969e-63 2.9215909e-47 -2.7469656e-18)
  triclinic box = (0 0 0) to (5.6608412 5.6605582 6.8602432) with tilt (2.2003969e-63 2.9215909e-47 -2.7469656e-18)
  triclinic box = (0 0 0) to (5.6608412 5.6605582 6.9288456) with tilt (2.2003969e-63 2.9215909e-47 -2.7469656e-18)
  triclinic box = (0 0 0) to (5.6608412 5.6605582 6.9288456) with tilt (0.056606997 2.9215909e-47 -2.7469656e-18)
  triclinic box = (0 0 0) to (5.6608412 5.6605582 6.9288456) with tilt (0.056606997 -2.7469313e-20 -2.7469656e-18)
  triclinic box = (0 0 0) to (5.6608412 5.6605582 6.9288456) with tilt (0.056606997 -2.7469313e-20 -5.5567328e-18)
echo none
run 0
Per MPI rank memory allocation (min/avg/max) = 3.608 | 3.608 | 3.608 Mbytes
    PotEng          Pxx           E_mol          E_coul    
-1956.0619     -5013.982       0              0            
Loop time of 6.53e-07 on 1 procs for 0 steps with 12 atoms

153.1% CPU use with 1 MPI tasks x 1 OpenMP threads

MPI task timing breakdown:
Section |  min time  |  avg time  |  max time  |%varavg| %total
---------------------------------------------------------------
Pair    | 0          | 0          | 0          |   0.0 |  0.00
Neigh   | 0          | 0          | 0          |   0.0 |  0.00
Comm    | 0          | 0          | 0          |   0.0 |  0.00
Output  | 0          | 0          | 0          |   0.0 |  0.00
Modify  | 0          | 0          | 0          |   0.0 |  0.00
Other   |            | 6.53e-07   |            |       |100.00

Nlocal:             12 ave          12 max          12 min
Histogram: 1 0 0 0 0 0 0 0 0 0
Nghost:            570 ave         570 max         570 min
Histogram: 1 0 0 0 0 0 0 0 0 0
Neighs:            708 ave         708 max         708 min
Histogram: 1 0 0 0 0 0 0 0 0 0
FullNghs:         1416 ave        1416 max        1416 min
Histogram: 1 0 0 0 0 0 0 0 0 0

Total # of neighbors = 1416
Ave neighs/atom = 118
Neighbor list builds = 0
Dangerous builds = 0
set atom * x 0.0 y 0.0 z 0.0
Setting atom values ...
  12 settings made for x
  12 settings made for y
  12 settings made for z
change_box all     x final 0 5.660841215863976 y final 0 5.660558180879058 z final 0 6.928845610538649      xy final 0.05660699698371517 xz final -2.7469312589093555e-20 yz final -5.5567328255967005e-18 units box
Changing box ...
  triclinic box = (0 0 0) to (5.6608412 5.6605582 6.9288456) with tilt (0.056606997 -2.7469313e-20 -5.5567328e-18)
  triclinic box = (0 0 0) to (5.6608412 5.6605582 6.9288456) with tilt (0.056606997 -2.7469313e-20 -5.5567328e-18)
  triclinic box = (0 0 0) to (5.6608412 5.6605582 6.9288456) with tilt (0.056606997 -2.7469313e-20 -5.5567328e-18)
  triclinic box = (0 0 0) to (5.6608412 5.6605582 6.9288456) with tilt (0.056606997 -2.7469313e-20 -5.5567328e-18)
  triclinic box = (0 0 0) to (5.6608412 5.6605582 6.9288456) with tilt (0.056606997 -2.7469313e-20 -5.5567328e-18)
  triclinic box = (0 0 0) to (5.6608412 5.6605582 6.9288456) with tilt (0.056606997 -2.7469313e-20 -5.5567328e-18)
echo none
run 0
Per MPI rank memory allocation (min/avg/max) = 3.608 | 3.608 | 3.608 Mbytes
    PotEng          Pxx           E_mol          E_coul    
-1956.0138     -6530.8343      0              0            
Loop time of 6.08e-07 on 1 procs for 0 steps with 12 atoms

164.5% CPU use with 1 MPI tasks x 1 OpenMP threads

MPI task timing breakdown:
Section |  min time  |  avg time  |  max time  |%varavg| %total
---------------------------------------------------------------
Pair    | 0          | 0          | 0          |   0.0 |  0.00
Neigh   | 0          | 0          | 0          |   0.0 |  0.00
Comm    | 0          | 0          | 0          |   0.0 |  0.00
Output  | 0          | 0          | 0          |   0.0 |  0.00
Modify  | 0          | 0          | 0          |   0.0 |  0.00
Other   |            | 6.08e-07   |            |       |100.00

Nlocal:             12 ave          12 max          12 min
Histogram: 1 0 0 0 0 0 0 0 0 0
Nghost:            570 ave         570 max         570 min
Histogram: 1 0 0 0 0 0 0 0 0 0
Neighs:            712 ave         712 max         712 min
Histogram: 1 0 0 0 0 0 0 0 0 0
FullNghs:         1424 ave        1424 max        1424 min
Histogram: 1 0 0 0 0 0 0 0 0 0

Total # of neighbors = 1424
Ave neighs/atom = 118.66667
Neighbor list builds = 0
Dangerous builds = 0
set atom * x 0.0 y 0.0 z 0.0
Setting atom values ...
  12 settings made for x
  12 settings made for y
  12 settings made for z
change_box all     x final 0 5.660841215863976 y final 0 5.660558180879058 z final 0 6.928845610538649      xy final 0.05660699698371517 xz final -2.7469312589093555e-20 yz final -5.5567328255967005e-18 units box
Changing box ...
  triclinic box = (0 0 0) to (5.6608412 5.6605582 6.9288456) with tilt (0.056606997 -2.7469313e-20 -5.5567328e-18)
  triclinic box = (0 0 0) to (5.6608412 5.6605582 6.9288456) with tilt (0.056606997 -2.7469313e-20 -5.5567328e-18)
  triclinic box = (0 0 0) to (5.6608412 5.6605582 6.9288456) with tilt (0.056606997 -2.7469313e-20 -5.5567328e-18)
  triclinic box = (0 0 0) to (5.6608412 5.6605582 6.9288456) with tilt (0.056606997 -2.7469313e-20 -5.5567328e-18)
  triclinic box = (0 0 0) to (5.6608412 5.6605582 6.9288456) with tilt (0.056606997 -2.7469313e-20 -5.5567328e-18)
  triclinic box = (0 0 0) to (5.6608412 5.6605582 6.9288456) with tilt (0.056606997 -2.7469313e-20 -5.5567328e-18)
echo none
run 0
Per MPI rank memory allocation (min/avg/max) = 3.608 | 3.608 | 3.608 Mbytes
    PotEng          Pxx           E_mol          E_coul    
-1956.0637     -5422.2471      0              0            
Loop time of 6.19e-07 on 1 procs for 0 steps with 12 atoms

161.6% CPU use with 1 MPI tasks x 1 OpenMP threads

MPI task timing breakdown:
Section |  min time  |  avg time  |  max time  |%varavg| %total
---------------------------------------------------------------
Pair    | 0          | 0          | 0          |   0.0 |  0.00
Neigh   | 0          | 0          | 0          |   0.0 |  0.00
Comm    | 0          | 0          | 0          |   0.0 |  0.00
Output  | 0          | 0          | 0          |   0.0 |  0.00
Modify  | 0          | 0          | 0          |   0.0 |  0.00
Other   |            | 6.19e-07   |            |       |100.00

Nlocal:             12 ave          12 max          12 min
Histogram: 1 0 0 0 0 0 0 0 0 0
Nghost:            570 ave         570 max         570 min
Histogram: 1 0 0 0 0 0 0 0 0 0
Neighs:            708 ave         708 max         708 min
Histogram: 1 0 0 0 0 0 0 0 0 0
FullNghs:         1416 ave        1416 max        1416 min
Histogram: 1 0 0 0 0 0 0 0 0 0

Total # of neighbors = 1416
Ave neighs/atom = 118
Neighbor list builds = 0
Dangerous builds = 0
set atom * x 0.0 y 0.0 z 0.0
Setting atom values ...
  12 settings made for x
  12 settings made for y
  12 settings made for z
change_box all     x final 0 5.661053488122734 y final 0 5.659921390634859 z final 0 6.99744804232616      xy final 0.11320974878757595 xz final -5.493656514711972e-20 yz final -5.61266268567618e-18 units box
Changing box ...
  triclinic box = (0 0 0) to (5.6610535 5.6605582 6.9288456) with tilt (0.056606997 -2.7469313e-20 -5.5567328e-18)
  triclinic box = (0 0 0) to (5.6610535 5.6599214 6.9288456) with tilt (0.056606997 -2.7469313e-20 -5.5567328e-18)
  triclinic box = (0 0 0) to (5.6610535 5.6599214 6.997448) with tilt (0.056606997 -2.7469313e-20 -5.5567328e-18)
  triclinic box = (0 0 0) to (5.6610535 5.6599214 6.997448) with tilt (0.11320975 -2.7469313e-20 -5.5567328e-18)
  triclinic box = (0 0 0) to (5.6610535 5.6599214 6.997448) with tilt (0.11320975 -5.4936565e-20 -5.5567328e-18)
  triclinic box = (0 0 0) to (5.6610535 5.6599214 6.997448) with tilt (0.11320975 -5.4936565e-20 -5.6126627e-18)
echo none
run 0
Per MPI rank memory allocation (min/avg/max) = 3.608 | 3.608 | 3.608 Mbytes
    PotEng          Pxx           E_mol          E_coul    
-1956.0098     -9686.6896      0              0            
Loop time of 6.2e-07 on 1 procs for 0 steps with 12 atoms

161.3% CPU use with 1 MPI tasks x 1 OpenMP threads

MPI task timing breakdown:
Section |  min time  |  avg time  |  max time  |%varavg| %total
---------------------------------------------------------------
Pair    | 0          | 0          | 0          |   0.0 |  0.00
Neigh   | 0          | 0          | 0          |   0.0 |  0.00
Comm    | 0          | 0          | 0          |   0.0 |  0.00
Output  | 0          | 0          | 0          |   0.0 |  0.00
Modify  | 0          | 0          | 0          |   0.0 |  0.00
Other   |            | 6.2e-07    |            |       |100.00

Nlocal:             12 ave          12 max          12 min
Histogram: 1 0 0 0 0 0 0 0 0 0
Nghost:            570 ave         570 max         570 min
Histogram: 1 0 0 0 0 0 0 0 0 0
Neighs:            696 ave         696 max         696 min
Histogram: 1 0 0 0 0 0 0 0 0 0
FullNghs:         1392 ave        1392 max        1392 min
Histogram: 1 0 0 0 0 0 0 0 0 0

Total # of neighbors = 1392
Ave neighs/atom = 116
Neighbor list builds = 0
Dangerous builds = 0
set atom * x 0.0 y 0.0 z 0.0
Setting atom values ...
  12 settings made for x
  12 settings made for y
  12 settings made for z
change_box all     x final 0 5.661053488122734 y final 0 5.659921390634859 z final 0 6.99744804232616      xy final 0.11320974878757595 xz final -5.493656514711972e-20 yz final -5.61266268567618e-18 units box
Changing box ...
  triclinic box = (0 0 0) to (5.6610535 5.6599214 6.997448) with tilt (0.11320975 -5.4936565e-20 -5.6126627e-18)
  triclinic box = (0 0 0) to (5.6610535 5.6599214 6.997448) with tilt (0.11320975 -5.4936565e-20 -5.6126627e-18)
  triclinic box = (0 0 0) to (5.6610535 5.6599214 6.997448) with tilt (0.11320975 -5.4936565e-20 -5.6126627e-18)
  triclinic box = (0 0 0) to (5.6610535 5.6599214 6.997448) with tilt (0.11320975 -5.4936565e-20 -5.6126627e-18)
  triclinic box = (0 0 0) to (5.6610535 5.6599214 6.997448) with tilt (0.11320975 -5.4936565e-20 -5.6126627e-18)
  triclinic box = (0 0 0) to (5.6610535 5.6599214 6.997448) with tilt (0.11320975 -5.4936565e-20 -5.6126627e-18)
echo none
run 0
Per MPI rank memory allocation (min/avg/max) = 3.608 | 3.608 | 3.608 Mbytes
    PotEng          Pxx           E_mol          E_coul    
-1955.9847     -11643.222      0              0            
Loop time of 6.21e-07 on 1 procs for 0 steps with 12 atoms

161.0% CPU use with 1 MPI tasks x 1 OpenMP threads

MPI task timing breakdown:
Section |  min time  |  avg time  |  max time  |%varavg| %total
---------------------------------------------------------------
Pair    | 0          | 0          | 0          |   0.0 |  0.00
Neigh   | 0          | 0          | 0          |   0.0 |  0.00
Comm    | 0          | 0          | 0          |   0.0 |  0.00
Output  | 0          | 0          | 0          |   0.0 |  0.00
Modify  | 0          | 0          | 0          |   0.0 |  0.00
Other   |            | 6.21e-07   |            |       |100.00

Nlocal:             12 ave          12 max          12 min
Histogram: 1 0 0 0 0 0 0 0 0 0
Nghost:            570 ave         570 max         570 min
Histogram: 1 0 0 0 0 0 0 0 0 0
Neighs:            696 ave         696 max         696 min
Histogram: 1 0 0 0 0 0 0 0 0 0
FullNghs:         1392 ave        1392 max        1392 min
Histogram: 1 0 0 0 0 0 0 0 0 0

Total # of neighbors = 1392
Ave neighs/atom = 116
Neighbor list builds = 0
Dangerous builds = 0
set atom * x 0.0 y 0.0 z 0.0
Setting atom values ...
  12 settings made for x
  12 settings made for y
  12 settings made for z
change_box all     x final 0 5.661053488122734 y final 0 5.659921390634859 z final 0 6.99744804232616      xy final 0.11320974878757595 xz final -5.493656514711972e-20 yz final -5.61266268567618e-18 units box
Changing box ...
  triclinic box = (0 0 0) to (5.6610535 5.6599214 6.997448) with tilt (0.11320975 -5.4936565e-20 -5.6126627e-18)
  triclinic box = (0 0 0) to (5.6610535 5.6599214 6.997448) with tilt (0.11320975 -5.4936565e-20 -5.6126627e-18)
  triclinic box = (0 0 0) to (5.6610535 5.6599214 6.997448) with tilt (0.11320975 -5.4936565e-20 -5.6126627e-18)
  triclinic box = (0 0 0) to (5.6610535 5.6599214 6.997448) with tilt (0.11320975 -5.4936565e-20 -5.6126627e-18)
  triclinic box = (0 0 0) to (5.6610535 5.6599214 6.997448) with tilt (0.11320975 -5.4936565e-20 -5.6126627e-18)
  triclinic box = (0 0 0) to (5.6610535 5.6599214 6.997448) with tilt (0.11320975 -5.4936565e-20 -5.6126627e-18)
echo none
run 0
Per MPI rank memory allocation (min/avg/max) = 3.608 | 3.608 | 3.608 Mbytes
    PotEng          Pxx           E_mol          E_coul    
-1956.0169     -10583.703      0              0            
Loop time of 6.47e-07 on 1 procs for 0 steps with 12 atoms

154.6% CPU use with 1 MPI tasks x 1 OpenMP threads

MPI task timing breakdown:
Section |  min time  |  avg time  |  max time  |%varavg| %total
---------------------------------------------------------------
Pair    | 0          | 0          | 0          |   0.0 |  0.00
Neigh   | 0          | 0          | 0          |   0.0 |  0.00
Comm    | 0          | 0          | 0          |   0.0 |  0.00
Output  | 0          | 0          | 0          |   0.0 |  0.00
Modify  | 0          | 0          | 0          |   0.0 |  0.00
Other   |            | 6.47e-07   |            |       |100.00

Nlocal:             12 ave          12 max          12 min
Histogram: 1 0 0 0 0 0 0 0 0 0
Nghost:            570 ave         570 max         570 min
Histogram: 1 0 0 0 0 0 0 0 0 0
Neighs:            696 ave         696 max         696 min
Histogram: 1 0 0 0 0 0 0 0 0 0
FullNghs:         1392 ave        1392 max        1392 min
Histogram: 1 0 0 0 0 0 0 0 0 0

Total # of neighbors = 1392
Ave neighs/atom = 116
Neighbor list builds = 0
Dangerous builds = 0
set atom * x 0.0 y 0.0 z 0.0
Setting atom values ...
  12 settings made for x
  12 settings made for y
  12 settings made for z
change_box all     x final 0 5.661053488122734 y final 0 5.659921390634859 z final 0 6.99744804232616      xy final 0.11320974878757595 xz final -5.493656514711972e-20 yz final -5.61266268567618e-18 units box
Changing box ...
  triclinic box = (0 0 0) to (5.6610535 5.6599214 6.997448) with tilt (0.11320975 -5.4936565e-20 -5.6126627e-18)
  triclinic box = (0 0 0) to (5.6610535 5.6599214 6.997448) with tilt (0.11320975 -5.4936565e-20 -5.6126627e-18)
  triclinic box = (0 0 0) to (5.6610535 5.6599214 6.997448) with tilt (0.11320975 -5.4936565e-20 -5.6126627e-18)
  triclinic box = (0 0 0) to (5.6610535 5.6599214 6.997448) with tilt (0.11320975 -5.4936565e-20 -5.6126627e-18)
  triclinic box = (0 0 0) to (5.6610535 5.6599214 6.997448) with tilt (0.11320975 -5.4936565e-20 -5.6126627e-18)
  triclinic box = (0 0 0) to (5.6610535 5.6599214 6.997448) with tilt (0.11320975 -5.4936565e-20 -5.6126627e-18)
echo none
run 0
Per MPI rank memory allocation (min/avg/max) = 3.608 | 3.608 | 3.608 Mbytes
    PotEng          Pxx           E_mol          E_coul    
-1956.0098     -6624.2587      0              0            
Loop time of 6.04e-07 on 1 procs for 0 steps with 12 atoms

165.6% CPU use with 1 MPI tasks x 1 OpenMP threads

MPI task timing breakdown:
Section |  min time  |  avg time  |  max time  |%varavg| %total
---------------------------------------------------------------
Pair    | 0          | 0          | 0          |   0.0 |  0.00
Neigh   | 0          | 0          | 0          |   0.0 |  0.00
Comm    | 0          | 0          | 0          |   0.0 |  0.00
Output  | 0          | 0          | 0          |   0.0 |  0.00
Modify  | 0          | 0          | 0          |   0.0 |  0.00
Other   |            | 6.04e-07   |            |       |100.00

Nlocal:             12 ave          12 max          12 min
Histogram: 1 0 0 0 0 0 0 0 0 0
Nghost:            570 ave         570 max         570 min
Histogram: 1 0 0 0 0 0 0 0 0 0
Neighs:            696 ave         696 max         696 min
Histogram: 1 0 0 0 0 0 0 0 0 0
FullNghs:         1392 ave        1392 max        1392 min
Histogram: 1 0 0 0 0 0 0 0 0 0

Total # of neighbors = 1392
Ave neighs/atom = 116
Neighbor list builds = 0
Dangerous builds = 0
set atom * x 0.0 y 0.0 z 0.0
Setting atom values ...
  12 settings made for x
  12 settings made for y
  12 settings made for z
change_box all     x final 0 5.661053488122734 y final 0 5.659921390634859 z final 0 6.99744804232616      xy final 0.11320974878757595 xz final -5.493656514711972e-20 yz final -5.61266268567618e-18 units box
Changing box ...
  triclinic box = (0 0 0) to (5.6610535 5.6599214 6.997448) with tilt (0.11320975 -5.4936565e-20 -5.6126627e-18)
  triclinic box = (0 0 0) to (5.6610535 5.6599214 6.997448) with tilt (0.11320975 -5.4936565e-20 -5.6126627e-18)
  triclinic box = (0 0 0) to (5.6610535 5.6599214 6.997448) with tilt (0.11320975 -5.4936565e-20 -5.6126627e-18)
  triclinic box = (0 0 0) to (5.6610535 5.6599214 6.997448) with tilt (0.11320975 -5.4936565e-20 -5.6126627e-18)
  triclinic box = (0 0 0) to (5.6610535 5.6599214 6.997448) with tilt (0.11320975 -5.4936565e-20 -5.6126627e-18)
  triclinic box = (0 0 0) to (5.6610535 5.6599214 6.997448) with tilt (0.11320975 -5.4936565e-20 -5.6126627e-18)
echo none
run 0
Per MPI rank memory allocation (min/avg/max) = 3.608 | 3.608 | 3.608 Mbytes
    PotEng          Pxx           E_mol          E_coul    
-1956.0193     -9265.13        0              0            
Loop time of 6.25e-07 on 1 procs for 0 steps with 12 atoms

160.0% CPU use with 1 MPI tasks x 1 OpenMP threads

MPI task timing breakdown:
Section |  min time  |  avg time  |  max time  |%varavg| %total
---------------------------------------------------------------
Pair    | 0          | 0          | 0          |   0.0 |  0.00
Neigh   | 0          | 0          | 0          |   0.0 |  0.00
Comm    | 0          | 0          | 0          |   0.0 |  0.00
Output  | 0          | 0          | 0          |   0.0 |  0.00
Modify  | 0          | 0          | 0          |   0.0 |  0.00
Other   |            | 6.25e-07   |            |       |100.00

Nlocal:             12 ave          12 max          12 min
Histogram: 1 0 0 0 0 0 0 0 0 0
Nghost:            570 ave         570 max         570 min
Histogram: 1 0 0 0 0 0 0 0 0 0
Neighs:            696 ave         696 max         696 min
Histogram: 1 0 0 0 0 0 0 0 0 0
FullNghs:         1392 ave        1392 max        1392 min
Histogram: 1 0 0 0 0 0 0 0 0 0

Total # of neighbors = 1392
Ave neighs/atom = 116
Neighbor list builds = 0
Dangerous builds = 0
Total wall time: 0:00:17
