12
Lattice="5.872554229655012 8.357360981227903e-63 2.473125053016864e-47 -8.592235936318215e-63 5.872554229655012 5.577218625775056e-17 -3.0200079872960264e-47 -6.810510764989603e-17 7.171154025451647" Properties=species:S:1:pos:R:3:forces:R:3 cutoff=-1.0 nneightol=1.2 n_minim_iter=1 energy=-1955.2512399027423 stress="0.05752961003701992 6.2409254658503e-17 -1.3353164055190496e-16 6.2409254658503e-17 0.057529610037020125 1.204924122590949e-16 -1.3353164055190496e-16 1.204924122590949e-16 0.0559491394930846" free_energy=-1955.2512399027423 pbc="T T T"
Si       0.46252113       0.46252113       0.00000000      -0.00396851      -0.00396851       0.00000000
Si      -0.46252114      -0.46252114       3.58557701       0.00396851       0.00396851       0.00000000
Si       2.47375598       3.39879825       5.37836552       0.00396851      -0.00396851       0.00000000
Si       3.39879825       2.47375598       1.79278851      -0.00396851       0.00396851      -0.00000000
Si       0.74829723       3.89632559      -0.11757509       0.02138530      -0.00275730      -0.06059447
Si       0.96004848       2.18797988       1.67521342      -0.00275730      -0.02138530      -0.06059447
Si       1.97622863       5.12425700       3.70315210       0.00275730      -0.02138530       0.06059447
Si       2.18797988       0.96004848       5.49594061      -0.02138530      -0.00275730       0.06059447
Si       3.68457434       4.91250574       1.91036359       0.02138530       0.00275730       0.06059447
Si       3.89632559       0.74829723       0.11757509      -0.00275730       0.02138530       0.06059447
Si       4.91250574       3.68457434       5.26079043       0.00275730       0.02138530      -0.06059447
Si       5.12425700       1.97622863       3.46800193      -0.02138530       0.00275730      -0.06059447
12
Lattice="5.86638218488933 8.348577408683161e-63 2.4880249627345075e-47 -8.784406336684166e-63 5.86638218488933 5.58896042852435e-17 -3.0034810042042275e-47 -6.803352929459296e-17 7.186251564512159" Properties=species:S:1:pos:R:3:forces:R:3 cutoff=-1.0 nneightol=1.2 n_minim_iter=2 energy=-1955.2517906274718 stress="0.05662063761312416 -9.21781333188592e-17 -1.093093549171559e-16 -9.21781333188592e-17 0.0566206376131241 -4.36941063607502e-17 -1.093093549171559e-16 -4.36941063607502e-17 0.05714893588941183" free_energy=-1955.2517906274718 pbc="T T T"
Si       0.46200303       0.46200303       0.00000000       0.00114019       0.00114019       0.00000000
Si      -0.46200303      -0.46200303       3.59312578      -0.00114019      -0.00114019      -0.00000000
Si       2.47118806       3.39519412       5.38968867      -0.00114019       0.00114019       0.00000000
Si       3.39519412       2.47118806       1.79656289       0.00114019      -0.00114019      -0.00000000
Si       0.74768318       3.89220833      -0.11831270       0.02331848      -0.01105233      -0.06426398
Si       0.95901724       2.18550790       1.67825019      -0.01105233      -0.02331848      -0.06426398
Si       1.97417385       5.11869900       3.71143848       0.01105233      -0.02331848       0.06426398
Si       2.18550790       0.95901724       5.50800137      -0.02331848      -0.01105233       0.06426398
Si       3.68087428       4.90736494       1.91487559       0.02331848       0.01105233       0.06426398
Si       3.89220833       0.74768318       0.11831270      -0.01105233       0.02331848       0.06426398
Si       4.90736494       3.68087428       5.27137597       0.01105233       0.02331848      -0.06426398
Si       5.11869900       1.97417385       3.47481308      -0.02331848       0.01105233      -0.06426398
12
Lattice="5.863582090561791 8.344866493568567e-63 2.4858116540214605e-47 -9.4039603881201e-63 5.863582090561791 5.59429960611546e-17 -3.007669705205506e-47 -6.800105607797387e-17 7.193116646812887" Properties=species:S:1:pos:R:3:forces:R:3 cutoff=-1.0 nneightol=1.2 n_minim_iter=3 energy=-1955.2550483189382 stress="0.055608645753547035 1.1076526982689669e-16 -5.945533877116967e-18 1.1076526982689669e-16 0.05560864575354715 2.5657946624336323e-16 -5.945533877116967e-18 2.5657946624336323e-16 0.05559176334331712" free_energy=-1955.2550483189382 pbc="T T T"
Si       0.46174408       0.46174408       0.00000000      -0.03898131      -0.03898131      -0.00000000
Si      -0.46174409      -0.46174409       3.59655832       0.03898131       0.03898131      -0.00000000
Si       2.47004696       3.39353513       5.39483749       0.03898131      -0.03898131       0.00000000
Si       3.39353513       2.47004696       1.79827916      -0.03898131       0.03898131       0.00000000
Si       0.75128525       3.88881552      -0.12948949      -0.01666587       0.00071610      -0.00647583
Si       0.95702447       2.18050579       1.66878967       0.00071610       0.01666587      -0.00647583
Si       1.97476657       5.11229684       3.72604781      -0.00071610       0.01666587       0.00647583
Si       2.18050579       0.95702447       5.52432698       0.01666587       0.00071610       0.00647583
Si       3.68307630       4.90655761       1.92776865      -0.01666587      -0.00071610       0.00647583
Si       3.88881552       0.75128525       0.12948949       0.00071610      -0.01666587       0.00647583
Si       4.90655761       3.68307630       5.26534799      -0.00071610      -0.01666587      -0.00647583
Si       5.11229684       1.97476657       3.46706883       0.01666587      -0.00071610      -0.00647583
12
Lattice="5.863978031706486 8.319536895831549e-63 2.4861456376816035e-47 -9.346258466421102e-63 5.863978031706486 5.593544167197381e-17 -3.0070513048519603e-47 -6.80056478813405e-17 7.192145308014488" Properties=species:S:1:pos:R:3:forces:R:3 cutoff=-1.0 nneightol=1.2 n_minim_iter=4 energy=-1955.2560210459203 stress="0.05525513054770514 4.0982667599757654e-16 -1.2674876928315742e-16 4.0982667599757654e-16 0.05525513054770504 1.5768772830909575e-16 -1.2674876928315742e-16 1.5768772830909575e-16 0.05522335733466144" free_energy=-1955.2560210459203 pbc="T T T"
Si       0.45665287       0.45665287       0.00000000       0.00239899       0.00239899      -0.00000000
Si      -0.45665288      -0.45665288       3.59607265      -0.00239899      -0.00239899      -0.00000000
Si       2.47533614       3.38864189       5.39410898      -0.00239899       0.00239899       0.00000000
Si       3.38864189       2.47533614       1.79803633       0.00239899      -0.00239899       0.00000000
Si       0.75032728       3.88869714      -0.13362799      -0.00559016      -0.02338098       0.00045364
Si       0.95670813       2.18166173       1.66440833      -0.02338098       0.00559016       0.00045364
Si       1.97528088       5.11365074       3.72970065       0.02338098       0.00559016      -0.00045364
Si       2.18166173       0.95670813       5.52773697       0.00559016      -0.02338098      -0.00045364
Si       3.68231630       4.90726990       1.93166432      -0.00559016       0.02338098      -0.00045364
Si       3.88869714       0.75032728       0.13362799      -0.02338098      -0.00559016      -0.00045364
Si       4.90726990       3.68231630       5.26048099       0.02338098      -0.00559016       0.00045364
Si       5.11365074       1.97528088       3.46244466       0.00559016       0.02338098       0.00045364
12
Lattice="5.862964283291832 8.333159618745753e-63 2.4853809205739683e-47 -9.205232958875502e-63 5.862964283291832 5.2376457043668886e-17 -3.008523583584511e-47 -7.239973668472267e-17 7.194632669658478" Properties=species:S:1:pos:R:3:forces:R:3 cutoff=-1.0 nneightol=1.2 n_minim_iter=5 energy=-1955.2563358877135 stress="0.05512550375767882 -5.977142267659679e-17 -1.918269820779155e-16 -5.977142267659679e-17 0.05512550375767814 7.128503100978682e-17 -1.918269820779155e-16 7.128503100978682e-17 0.05511355732212241" free_energy=-1955.2563358877135 pbc="T T T"
Si       0.45518604       0.45518604       0.00000000      -0.00146567      -0.00146567       0.00000000
Si      -0.45518604      -0.45518604       3.59731633       0.00146567       0.00146567       0.00000000
Si       2.47629610       3.38666818       5.39597450       0.00146567      -0.00146567       0.00000000
Si       3.38666818       2.47629610       1.79865817      -0.00146567       0.00146567       0.00000000
Si       0.74907189       3.88478392      -0.13488611       0.00411621      -0.00112111       0.00083272
Si       0.95330177       2.18241025       1.66377206      -0.00112111      -0.00411621       0.00083272
Si       1.97818036       5.11389239       3.73220245       0.00112111      -0.00411621      -0.00083272
Si       2.18241025       0.95330177       5.53086061      -0.00411621      -0.00112111      -0.00083272
Si       3.68055403       4.90966250       1.93354428       0.00411621       0.00112111      -0.00083272
Si       3.88478392       0.74907189       0.13488611      -0.00112111       0.00411621      -0.00083272
Si       4.90966250       3.68055403       5.26108839       0.00112111       0.00411621       0.00083272
Si       5.11389239       1.97818036       3.46243022      -0.00411621       0.00112111       0.00083272
