12
Lattice="5.467837655287706 5.0635246659187765e-61 2.2863392422163243e-47 -5.068922364612924e-61 5.467837655287708 -2.6223315180445587e-18 -2.747616065504417e-47 -2.592477716710849e-17 6.617620931216991" Properties=species:S:1:pos:R:3:forces:R:3 cutoff=-1.0 nneightol=1.2 n_minim_iter=5 energy=-1955.7105655414803 stress="-0.045498789143745826 -1.9064562188784096e-16 -3.055149942435755e-16 -1.9064562188784096e-16 -0.045498789143744764 -1.1246364172043438e-16 -3.055149942435755e-16 -1.1246364172043438e-16 -0.045525141366050924" free_energy=-1955.7105655414803 pbc="T T T"
Si       0.44790088       0.44790088      -0.00000000       0.00287733       0.00287733       0.00000000
Si      -0.44790088      -0.44790088       3.30881047      -0.00287733      -0.00287733      -0.00000000
Si       2.28601795       3.18181970       4.96321570      -0.00287733       0.00287733       0.00000000
Si       3.18181970       2.28601795       1.65440523       0.00287733      -0.00287733       0.00000000
Si       0.72160323       3.63077782       0.00569855      -0.00238458       0.00187417       0.00026406
Si       0.89685899       2.01231560       1.66010379       0.00187417       0.00238458       0.00026406
Si       1.83705983       4.74623442       3.30311191      -0.00187417       0.00238458      -0.00026406
Si       2.01231560       0.89685899       4.95751715       0.00238458       0.00187417      -0.00026406
Si       3.45552206       4.57097866       1.64870668      -0.00238458      -0.00187417      -0.00026406
Si       3.63077782       0.72160323      -0.00569855       0.00187417      -0.00238458      -0.00026406
Si       4.57097866       3.45552206       4.96891425      -0.00187417      -0.00238458       0.00026406
Si       4.74623442       1.83705983       3.31450902       0.00238458      -0.00187417       0.00026406
