12
Lattice="5.9060758630495584 8.394435051816568e-63 2.5036564366113094e-47 -9.272920926210722e-63 5.9060758630495584 5.2761591882661543e-17 -3.0306458749988265e-47 -7.293210680872577e-17 7.247536280388199" Properties=species:S:1:pos:R:3:forces:R:3 cutoff=-1.0 nneightol=1.2 n_minim_iter=5 energy=-1955.2563358877135 stress="0.05512550375767882 -5.977142267659679e-17 -1.918269820779155e-16 -5.977142267659679e-17 0.05512550375767814 7.128503100978682e-17 -1.918269820779155e-16 7.128503100978682e-17 0.05511355732212241" free_energy=-1955.2563358877135 pbc="T T T"
Si       0.45853311       0.45853311       0.00000000      -0.00146567      -0.00146567       0.00000000
Si      -0.45853312      -0.45853312       3.62376814       0.00146567       0.00146567       0.00000000
Si       2.49450481       3.41157105       5.43565221       0.00146567      -0.00146567       0.00000000
Si       3.41157105       2.49450481       1.81188407      -0.00146567       0.00146567       0.00000000
Si       0.75457997       3.91334953      -0.13587796       0.00411621      -0.00112111       0.00083272
Si       0.96031160       2.19845796       1.67600611      -0.00112111      -0.00411621       0.00083272
Si       1.99272633       5.15149589       3.75964610       0.00112111      -0.00411621      -0.00083272
Si       2.19845796       0.96031160       5.57153017      -0.00411621      -0.00112111      -0.00083272
Si       3.70761790       4.94576426       1.94776203       0.00411621       0.00112111      -0.00083272
Si       3.91334953       0.75457997       0.13587796      -0.00112111       0.00411621      -0.00083272
Si       4.94576426       3.70761790       5.29977425       0.00112111       0.00411621       0.00083272
Si       5.15149589       1.99272633       3.48789018      -0.00411621       0.00112111       0.00083272
