12
Lattice="5.612920344760555 9.150031298327963e-64 2.3195537558916544e-47 1.7694436722323663e-63 5.612920344760555 -2.589668996983084e-17 -2.7633135691208905e-47 -2.5742215188323207e-17 6.803266093192022" Properties=species:S:1:pos:R:3:forces:R:3 cutoff=-1.0 nneightol=1.2 n_minim_iter=5 energy=-1956.0406653050636 stress="-0.014494989684986043 3.714823900615423e-16 3.489056427015415e-16 3.714823900615423e-16 -0.01449498968498614 3.447982043487184e-16 3.489056427015415e-16 3.447982043487184e-16 -0.014535488890588973" free_energy=-1956.0406653050636 pbc="T T T"
Si       0.45450955       0.45450955      -0.00000000       0.00154001       0.00154001       0.00000000
Si      -0.45450956      -0.45450956       3.40163305      -0.00154001      -0.00154001       0.00000000
Si       2.35195062       3.26096972       5.10244957      -0.00154001       0.00154001      -0.00000000
Si       3.26096972       2.35195062       1.70081652       0.00154001      -0.00154001       0.00000000
Si       0.72551454       3.72795233      -0.04053943      -0.00148697       0.00137455       0.00047128
Si       0.92149216       2.08094562       1.66027709       0.00137455       0.00148697       0.00047128
Si       1.88496801       4.88740580       3.44217248      -0.00137455       0.00148697      -0.00047128
Si       2.08094562       0.92149216       5.14298900       0.00148697       0.00137455      -0.00047128
Si       3.53197472       4.69142818       1.74135595      -0.00148697      -0.00137455      -0.00047128
Si       3.72795233       0.72551454       0.04053943       0.00137455      -0.00148697      -0.00047128
Si       4.69142818       3.53197472       5.06191014      -0.00137455      -0.00148697       0.00047128
Si       4.88740580       1.88496801       3.36109362       0.00148697      -0.00137455       0.00047128
