12
Lattice="6.019834241442266 -5.937853521480825e-62 2.61476051408248e-47 5.8458469876790575e-62 6.019834241442266 2.1869923698676983e-16 -3.25349400894209e-47 -2.720629183528625e-16 7.582833971918171" Properties=species:S:1:pos:R:3:forces:R:3 cutoff=-1.0 nneightol=1.2 n_minim_iter=5 energy=-1953.7441981350748 stress="0.08005256523676396 -1.3769874281564312e-16 -9.997588363111813e-17 -1.3769874281564312e-16 0.08005256523676386 2.885901795537431e-17 -9.997588363111813e-17 2.885901795537431e-17 0.0800592067440142" free_energy=-1953.7441981350748 pbc="T T T"
Si       0.43024638       0.43024638       0.00000000      -0.00136224      -0.00136224       0.00000000
Si      -0.43024639      -0.43024639       3.79141699       0.00136224       0.00136224       0.00000000
Si       2.57967073       3.44016350       5.68712548       0.00136224      -0.00136224       0.00000000
Si       3.44016350       2.57967073       1.89570849      -0.00136224       0.00136224      -0.00000000
Si       0.78514267       3.95780765      -0.22697684       0.00356636      -0.00115151       0.00130667
Si       0.94789053       2.22477445       1.66873166      -0.00115151      -0.00356636       0.00130667
Si       2.06202659       5.23469157       4.01839382       0.00115151      -0.00356636      -0.00130667
Si       2.22477445       0.94789053       5.91410232      -0.00356636      -0.00115151      -0.00130667
Si       3.79505979       5.07194371       2.12268533       0.00356636       0.00115151      -0.00130667
Si       3.95780765       0.78514267       0.22697684      -0.00115151       0.00356636      -0.00130667
Si       5.07194371       3.79505979       5.46014864       0.00115151       0.00356636       0.00130667
Si       5.23469157       2.06202659       3.56444015      -0.00356636       0.00115151       0.00130667
