12
Lattice="5.836069075166694 8.04332372880724e-63 2.4407928566494554e-47 -6.641008127945786e-62 5.836069075166694 5.694607878214534e-17 -2.9249867976912804e-47 -8.951927776424771e-17 7.099739892486027" Properties=species:S:1:pos:R:3:forces:R:3 cutoff=-1.0 nneightol=1.2 n_minim_iter=5 energy=-1955.7645956127235 stress="0.03659555150091854 -9.83859710607261e-17 -9.310533180594658e-17 -9.83859710607261e-17 0.03659555150091823 -1.9639023127349593e-16 -9.310533180594658e-17 -1.9639023127349593e-16 0.03659064130901187" free_energy=-1955.7645956127235 pbc="T T T"
Si       0.46457477       0.46457477       0.00000000      -0.00185923      -0.00185923       0.00000000
Si      -0.46457478      -0.46457478       3.54986995       0.00185923       0.00185923       0.00000000
Si       2.45345976       3.38260931       5.32480492       0.00185923      -0.00185923      -0.00000000
Si       3.38260931       2.45345976       1.77493497      -0.00185923       0.00185923      -0.00000000
Si       0.74284133       3.87568488      -0.10114071       0.00381988      -0.00119334      -0.00010875
Si       0.95765034       2.17519320       1.67379427      -0.00119334      -0.00381988      -0.00010875
Si       1.96038419       5.09322774       3.65101065       0.00119334      -0.00381988       0.00010875
Si       2.17519320       0.95765034       5.42594563      -0.00381988      -0.00119334       0.00010875
Si       3.66087587       4.87841873       1.87607568       0.00381988       0.00119334       0.00010875
Si       3.87568488       0.74284133       0.10114071      -0.00119334       0.00381988       0.00010875
Si       4.87841873       3.66087587       5.22366421       0.00119334       0.00381988      -0.00010875
Si       5.09322774       1.96038419       3.44872924      -0.00381988       0.00119334      -0.00010875
