12
Lattice="5.796425903783504 1.2651567534661846e-63 2.406703319248358e-47 -1.5342453934594193e-63 5.796425903783504 6.480866797315879e-17 -2.920389345583817e-47 -7.864141040425469e-17 7.033613290217324" Properties=species:S:1:pos:R:3:forces:R:3 cutoff=-1.0 nneightol=1.2 n_minim_iter=1 energy=-1955.7609548748014 stress="0.038106838689481885 -3.495590496091736e-17 2.5102626668384943e-16 -3.495590496091736e-17 0.038106838689481934 2.4080816090778957e-16 2.5102626668384943e-16 2.4080816090778957e-16 0.037462055406799165" free_energy=-1955.7609548748014 pbc="T T T"
Si       0.46480448       0.46480448       0.00000000       0.00365289       0.00365289       0.00000000
Si      -0.46480448      -0.46480448       3.51680665      -0.00365289      -0.00365289       0.00000000
Si       2.43340847       3.36301743       5.27520997      -0.00365289       0.00365289       0.00000000
Si       3.36301743       2.43340847       1.75840332       0.00365289      -0.00365289      -0.00000000
Si       0.73838212       3.85133129      -0.08604284       0.01335346       0.00341990      -0.06338786
Si       0.95311834       2.15983083       1.67236048       0.00341990      -0.01335346      -0.06338786
Si       1.94509461       5.05804378       3.60284948      -0.00341990      -0.01335346       0.06338786
Si       2.15983083       0.95311834       5.36125281      -0.01335346       0.00341990       0.06338786
Si       3.63659507       4.84330756       1.84444616       0.01335346      -0.00341990       0.06338786
Si       3.85133129       0.73838212       0.08604284       0.00341990       0.01335346       0.06338786
Si       4.84330756       3.63659507       5.18916713      -0.00341990       0.01335346      -0.06338786
Si       5.05804378       1.94509461       3.43076381      -0.01335346      -0.00341990      -0.06338786
12
Lattice="5.791042203917836 1.263981680351003e-63 2.4216403218402275e-47 -1.5315173816401994e-63 5.791042203917836 6.492922402810932e-17 -2.903535473024467e-47 -7.856836854058574e-17 7.046697105960389" Properties=species:S:1:pos:R:3:forces:R:3 cutoff=-1.0 nneightol=1.2 n_minim_iter=2 energy=-1955.7614127841384 stress="0.0372629933252018 -3.3523755221758405e-16 2.1523353409472029e-16 -3.3523755221758405e-16 0.03726299332520188 -9.97366402150324e-17 2.1523353409472029e-16 -9.97366402150324e-17 0.03859780124903581" free_energy=-1955.7614127841384 pbc="T T T"
Si       0.46443954       0.46443954       0.00000000       0.00712840       0.00712840       0.00000000
Si      -0.46443954      -0.46443954       3.52334855      -0.00712840      -0.00712840      -0.00000000
Si       2.43108156       3.35996064       5.28502283      -0.00712840       0.00712840      -0.00000000
Si       3.35996064       2.43108156       1.76167428       0.00712840      -0.00712840       0.00000000
Si       0.73794038       3.84781669      -0.08736473       0.01291134      -0.00627700      -0.06187155
Si       0.95229559       2.15758071       1.67430955      -0.00627700      -0.01291134      -0.06187155
Si       1.94322550       5.05310182       3.61071328       0.00627700      -0.01291134       0.06187155
Si       2.15758071       0.95229559       5.37238756      -0.01291134      -0.00627700       0.06187155
Si       3.63346148       4.83874661       1.84903900       0.01291134       0.00627700       0.06187155
Si       3.84781669       0.73794038       0.08736473      -0.00627700       0.01291134       0.06187155
Si       4.83874661       3.63346148       5.19765810       0.00627700       0.01291134      -0.06187155
Si       5.05310182       1.94322550       3.43598383      -0.01291134       0.00627700      -0.06187155
12
Lattice="5.791594957121977 1.2641193844682828e-63 2.4220869497749514e-47 -1.9510288013683513e-63 5.791594957121977 6.491683085344272e-17 -2.9027067099415146e-47 -7.857586786729166e-17 7.045352088376028" Properties=species:S:1:pos:R:3:forces:R:3 cutoff=-1.0 nneightol=1.2 n_minim_iter=3 energy=-1955.7637904715502 stress="0.036879372165853776 -1.7696335129049087e-17 2.0072393400161425e-16 -1.7696335129049087e-17 0.03687937216585316 -3.8376621406063926e-17 2.0072393400161425e-16 -3.8376621406063926e-17 0.03687845752520117" free_energy=-1955.7637904715502 pbc="T T T"
Si       0.46516061       0.46516061       0.00000000      -0.03068039      -0.03068039       0.00000000
Si      -0.46516061      -0.46516061       3.52267604       0.03068039       0.03068039       0.00000000
Si       2.43063686       3.36095809       5.28401407       0.03068039      -0.03068039       0.00000000
Si       3.36095809       2.43063686       1.76133802      -0.03068039       0.03068039      -0.00000000
Si       0.73987322       3.84821519      -0.09624607      -0.01802811       0.00089522      -0.00673353
Si       0.95241771       2.15592426       1.66509195       0.00089522       0.01802811      -0.00673353
Si       1.94337976       5.05172173       3.61892211      -0.00089522       0.01802811       0.00673353
Si       2.15592426       0.95241771       5.38026013       0.01802811       0.00089522       0.00673353
Si       3.63567070       4.83917724       1.85758409      -0.01802811      -0.00089522       0.00673353
Si       3.84821519       0.73987322       0.09624607       0.00089522      -0.01802811       0.00673353
Si       4.83917724       3.63567070       5.18776800      -0.00089522      -0.01802811      -0.00673353
Si       5.05172173       1.94337976       3.42642998       0.01802811      -0.00089522      -0.00673353
12
Lattice="5.792396885654233 1.3062783102983953e-63 2.4227814922341434e-47 -8.753214148517656e-63 5.792396885654233 6.434500538899176e-17 -2.9014481975233296e-47 -7.925817617066866e-17 7.043401435520948" Properties=species:S:1:pos:R:3:forces:R:3 cutoff=-1.0 nneightol=1.2 n_minim_iter=4 energy=-1955.7644093464116 stress="0.03667585459140861 4.455207897557175e-16 -6.987877725230036e-17 4.455207897557175e-16 0.03667585459140873 -1.4825062087162748e-16 -6.987877725230036e-17 -1.4825062087162748e-16 0.03664684308350773" free_energy=-1955.7644093464116 pbc="T T T"
Si       0.46182246       0.46182246       0.00000000       0.00299690       0.00299690       0.00000000
Si      -0.46182246      -0.46182246       3.52170072      -0.00299690      -0.00299690       0.00000000
Si       2.43437598       3.35802090       5.28255108      -0.00299690       0.00299690      -0.00000000
Si       3.35802090       2.43437598       1.76085036       0.00299690      -0.00299690      -0.00000000
Si       0.73835021       3.84885287      -0.09928987      -0.00472240      -0.01921712      -0.00163815
Si       0.95265443       2.15784823       1.66156048      -0.01921712       0.00472240      -0.00163815
Si       1.94354401       5.05404667       3.62099059       0.01921712       0.00472240       0.00163815
Si       2.15784823       0.95265443       5.38184095       0.00472240      -0.01921712       0.00163815
Si       3.63454865       4.83974245       1.86014023      -0.00472240       0.01921712       0.00163815
Si       3.84885287       0.73835021       0.09928987      -0.01921712      -0.00472240       0.00163815
Si       4.83974245       3.63454865       5.18326120       0.01921712      -0.00472240      -0.00163815
Si       5.05404667       1.94354401       3.42241084       0.00472240       0.01921712      -0.00163815
12
Lattice="5.791517192122488 7.981921916485087e-63 2.422160123471692e-47 -6.590311432344491e-62 5.791517192122488 5.651135893749446e-17 -2.9026577834116017e-47 -8.883589784845386e-17 7.045541291122611" Properties=species:S:1:pos:R:3:forces:R:3 cutoff=-1.0 nneightol=1.2 n_minim_iter=5 energy=-1955.7645956127235 stress="0.03659555150091854 -9.83859710607261e-17 -9.310533180594658e-17 -9.83859710607261e-17 0.03659555150091823 -1.9639023127349593e-16 -9.310533180594658e-17 -1.9639023127349593e-16 0.03659064130901187" free_energy=-1955.7645956127235 pbc="T T T"
Si       0.46102826       0.46102826       0.00000000      -0.00185923      -0.00185923       0.00000000
Si      -0.46102827      -0.46102827       3.52277065       0.00185923       0.00185923       0.00000000
Si       2.43473033       3.35678686       5.28415597       0.00185923      -0.00185923      -0.00000000
Si       3.35678686       2.43473033       1.76138532      -0.00185923       0.00185923      -0.00000000
Si       0.73717057       3.84609834      -0.10036861       0.00381988      -0.00119334      -0.00010875
Si       0.95033975       2.15858802       1.66101671      -0.00119334      -0.00381988      -0.00010875
Si       1.94541884       5.05434662       3.62313926       0.00119334      -0.00381988       0.00010875
Si       2.15858802       0.95033975       5.38452458      -0.00381988      -0.00119334       0.00010875
Si       3.63292916       4.84117744       1.86175393       0.00381988       0.00119334       0.00010875
Si       3.84609834       0.73717057       0.10036861      -0.00119334       0.00381988       0.00010875
Si       4.84117744       3.63292916       5.18378736       0.00119334       0.00381988      -0.00010875
Si       5.05434662       1.94541884       3.42240204      -0.00381988       0.00119334      -0.00010875
