12
Lattice="5.422205146069518 5.0260949397560536e-61 2.2744489479105016e-47 -5.020931325192266e-61 5.422205146069518 1.49499993455567e-18 -2.7270870778266904e-47 7.918617153577764e-18 6.542545676511226" Properties=species:S:1:pos:R:3:forces:R:3 cutoff=-1.0 nneightol=1.2 n_minim_iter=5 energy=-1955.4184005748211 stress="-0.060768629007457005 9.490605578976022e-16 2.8993135982612595e-16 9.490605578976022e-16 -0.06076862900745747 1.5373251472412676e-16 2.8993135982612595e-16 1.5373251472412676e-16 -0.06089370739302279" free_energy=-1955.4184005748211 pbc="T T T"
Si       0.44854607       0.44854607       0.00000000       0.00267882       0.00267882      -0.00000000
Si      -0.44854607      -0.44854607       3.27127284      -0.00267882      -0.00267882       0.00000000
Si       2.26255650       3.15964864       4.90690926      -0.00267882       0.00267882       0.00000000
Si       3.15964864       2.26255650       1.63563642       0.00267882      -0.00267882       0.00000000
Si       0.72691109       3.60126241       0.03997923      -0.00157315       0.00280077      -0.00090235
Si       0.89015984       1.98419147       1.67561565       0.00280077       0.00157315      -0.00090235
Si       1.82094273       4.69529405       3.23129361      -0.00280077       0.00157315       0.00090235
Si       1.98419147       0.89015984       4.86693003       0.00157315       0.00280077       0.00090235
Si       3.43801367       4.53204530       1.59565719      -0.00157315      -0.00280077       0.00090235
Si       3.60126241       0.72691109      -0.03997923       0.00280077      -0.00157315       0.00090235
Si       4.53204530       3.43801367       4.94688849      -0.00280077      -0.00157315      -0.00090235
Si       4.69529405       1.82094273       3.31125207       0.00157315      -0.00280077      -0.00090235
