12
Lattice="5.707555805242054 1.7236481150236992e-63 2.339063455755521e-47 -1.7142567283093228e-63 5.707555805242054 -2.2915951095306384e-18 -2.834692598794543e-47 2.7771660834750906e-18 6.916941974582123" Properties=species:S:1:pos:R:3:forces:R:3 cutoff=-1.0 nneightol=1.2 n_minim_iter=1 energy=-1956.0388420756215 stress="0.014416381682052693 -1.238619922220538e-16 1.1349765645768801e-17 -1.238619922220538e-16 0.014416381682053099 -1.455048809259151e-18 1.1349765645768801e-17 -1.455048809259151e-18 0.01523614589276692" free_energy=-1956.0388420756215 pbc="T T T"
Si       0.46122613       0.46122613      -0.00000000       0.00983114       0.00983114      -0.00000000
Si      -0.46122613      -0.46122613       3.45847099      -0.00983114      -0.00983114      -0.00000000
Si       2.39255177       3.31500403       5.18770648      -0.00983114       0.00983114      -0.00000000
Si       3.31500403       2.39255177       1.72923549       0.00983114      -0.00983114       0.00000000
Si       0.73303982       3.79209313      -0.05697921       0.00064839       0.00886619      -0.07001737
Si       0.93831523       2.12073808       1.67225629       0.00886619      -0.00064839      -0.07001737
Si       1.91546267       4.97451598       3.51545020      -0.00886619      -0.00064839       0.07001737
Si       2.12073808       0.93831523       5.24468569      -0.00064839       0.00886619       0.07001737
Si       3.58681772       4.76924057       1.78621470       0.00064839      -0.00886619       0.07001737
Si       3.79209313       0.73303982       0.05697921       0.00886619       0.00064839       0.07001737
Si       4.76924057       3.58681772       5.13072727      -0.00886619       0.00064839      -0.07001737
Si       4.97451598       1.91546267       3.40149178      -0.00064839      -0.00886619      -0.07001737
12
Lattice="5.7118940827865785 1.5561631588273806e-63 2.3603870341635216e-47 -2.1267229295209587e-63 5.7118940827865785 5.560204431459869e-17 -2.8079640872728786e-47 6.885030209026003e-17 6.906438902230973" Properties=species:S:1:pos:R:3:forces:R:3 cutoff=-1.0 nneightol=1.2 n_minim_iter=2 energy=-1956.0392376650732 stress="0.014978554597860823 2.625304533457356e-16 7.832820289738059e-17 2.625304533457356e-16 0.014978554597860471 -6.048845764205904e-17 7.832820289738059e-17 -6.048845764205904e-17 0.013758387607223648" free_energy=-1956.0392376650732 pbc="T T T"
Si       0.46169811       0.46169811       0.00000000      -0.00177326      -0.00177326      -0.00000000
Si      -0.46169812      -0.46169812       3.45321945       0.00177326       0.00177326       0.00000000
Si       2.39424892       3.31764515       5.17982918       0.00177326      -0.00177326      -0.00000000
Si       3.31764515       2.39424892       1.72660973      -0.00177326       0.00177326       0.00000000
Si       0.73360500       3.79508497      -0.05775540      -0.00478070       0.01892884      -0.05986872
Si       0.93913793       2.12234203       1.66885433       0.01892884       0.00478070      -0.05986872
Si       1.91680911       4.97828907       3.51097485      -0.01892884       0.00478070       0.05986872
Si       2.12234203       0.93913793       5.23758458       0.00478070       0.01892884       0.05986872
Si       3.58955205       4.77275615       1.78436513      -0.00478070      -0.01892884       0.05986872
Si       3.79508497       0.73360500       0.05775540       0.01892884      -0.00478070       0.05986872
Si       4.77275615       3.58955205       5.12207378      -0.01892884      -0.00478070      -0.05986872
Si       4.97828907       1.91680911       3.39546405       0.00478070      -0.01892884      -0.05986872
12
Lattice="5.707359487906906 1.5379820260305722e-63 2.357219717593926e-47 -3.853700925853221e-63 5.707359487906906 5.747921482611241e-17 -2.814097953730546e-47 7.097310913080758e-17 6.917417830001031" Properties=species:S:1:pos:R:3:forces:R:3 cutoff=-1.0 nneightol=1.2 n_minim_iter=3 energy=-1956.0420806110428 stress="0.01350441547526807 2.398232233832505e-16 -9.378136015867955e-17 2.398232233832505e-16 0.013504415475268367 -5.4036971387248845e-17 -9.378136015867955e-17 -5.4036971387248845e-17 0.013544140657183366" free_energy=-1956.0420806110428 pbc="T T T"
Si       0.46207963       0.46207963       0.00000000      -0.02011431      -0.02011431      -0.00000000
Si      -0.46207963      -0.46207963       3.45870892       0.02011431       0.02011431      -0.00000000
Si       2.39160011       3.31575937       5.18806337       0.02011431      -0.02011431      -0.00000000
Si       3.31575937       2.39160011       1.72935446      -0.02011431       0.02011431       0.00000000
Si       0.73275439       3.79414448      -0.06810296      -0.02482308      -0.00619379      -0.00250196
Si       0.94046473       2.12092535       1.66125150      -0.00619379       0.02482308      -0.00250196
Si       1.91321500       4.97460509       3.52681188       0.00619379       0.02482308       0.00250196
Si       2.12092535       0.94046473       5.25616633       0.02482308      -0.00619379       0.00250196
Si       3.58643413       4.76689475       1.79745742      -0.02482308       0.00619379       0.00250196
Si       3.79414448       0.73275439       0.06810296      -0.00619379      -0.02482308       0.00250196
Si       4.76689475       3.58643413       5.11996041       0.00619379      -0.02482308      -0.00250196
Si       4.97460509       1.91321500       3.39060595       0.02482308       0.00619379      -0.00250196
12
Lattice="5.708237212151957 1.5095989843970204e-63 2.3579673237830895e-47 -3.8936026569121696e-63 5.708237212151957 6.008151566954942e-17 -2.812746383943958e-47 7.414567920229623e-17 6.915290686955018" Properties=species:S:1:pos:R:3:forces:R:3 cutoff=-1.0 nneightol=1.2 n_minim_iter=4 energy=-1956.042605822741 stress="0.013360766774446607 -2.420654612969901e-16 -1.2106160066455176e-16 -2.420654612969901e-16 0.013360766774446304 -1.831975738895818e-16 -1.2106160066455176e-16 -1.831975738895818e-16 0.013357800340149314" free_energy=-1956.042605822741 pbc="T T T"
Si       0.45983102       0.45983102       0.00000000       0.00643922       0.00643922       0.00000000
Si      -0.45983102      -0.45983102       3.45764534      -0.00643922      -0.00643922       0.00000000
Si       2.39428758       3.31394962       5.18646802      -0.00643922       0.00643922      -0.00000000
Si       3.31394962       2.39428758       1.72882267       0.00643922      -0.00643922      -0.00000000
Si       0.72978996       3.79435671      -0.07025965      -0.00131778      -0.01389206      -0.00270975
Si       0.94023811       2.12432864       1.65856302      -0.01389206       0.00131778      -0.00270975
Si       1.91388049       4.97844725       3.52790499       0.01389206       0.00131778       0.00270975
Si       2.12432864       0.94023811       5.25672766       0.00131778      -0.01389206       0.00270975
Si       3.58390856       4.76799910       1.79908232      -0.00131778       0.01389206       0.00270975
Si       3.79435671       0.72978996       0.07025965      -0.01389206      -0.00131778       0.00270975
Si       4.76799910       3.58390856       5.11620837       0.01389206      -0.00131778      -0.00270975
Si       4.97844725       1.91388049       3.38738570       0.00131778       0.01389206      -0.00270975
12
Lattice="5.7075380836094505 1.4831262004751041e-63 2.3575496547503514e-47 -3.9552523842061416e-63 5.7075380836094505 6.896120875720191e-17 -2.8136069761856435e-47 8.492601170013769e-17 6.916984928196384" Properties=species:S:1:pos:R:3:forces:R:3 cutoff=-1.0 nneightol=1.2 n_minim_iter=5 energy=-1956.0426763116986 stress="0.013324457050003166 -1.4848619125070745e-16 -5.468789401594125e-16 -1.4848619125070745e-16 0.013324457050002738 -2.5860605582975875e-16 -5.468789401594125e-16 -2.5860605582975875e-16 0.01334467068338081" free_energy=-1956.0426763116986 pbc="T T T"
Si       0.45991424       0.45991424       0.00000000      -0.00174446      -0.00174446       0.00000000
Si      -0.45991425      -0.45991425       3.45849246       0.00174446       0.00174446       0.00000000
Si       2.39385479       3.31368328       5.18773870       0.00174446      -0.00174446       0.00000000
Si       3.31368328       2.39385479       1.72924623      -0.00174446       0.00174446      -0.00000000
Si       0.72917764       3.79282901      -0.07073610       0.00207074      -0.00100679      -0.00087300
Si       0.93905997       2.12459139       1.65851013      -0.00100679      -0.00207074      -0.00087300
Si       1.91470907       4.97836044       3.52922856       0.00100679      -0.00207074       0.00087300
Si       2.12459139       0.93905997       5.25847479      -0.00207074      -0.00100679       0.00087300
Si       3.58294668       4.76847811       1.79998233       0.00207074       0.00100679       0.00087300
Si       3.79282901       0.72917764       0.07073610      -0.00100679       0.00207074       0.00087300
Si       4.76847811       3.58294668       5.11700260       0.00100679       0.00207074      -0.00087300
Si       4.97836044       1.91470907       3.38775637      -0.00207074       0.00100679      -0.00087300
