12
Lattice="5.266029983569124 4.8975730457900435e-61 2.2461257940738305e-47 -4.896421975529244e-61 5.266029983569124 -2.6986781072382882e-17 -2.7049838690042053e-47 3.249987497126985e-17 6.341820300906415" Properties=species:S:1:pos:R:3:forces:R:3 cutoff=-1.0 nneightol=1.2 n_minim_iter=1 energy=-1953.1158053258025 stress="-0.17403069944987454 -4.531288558514588e-16 7.944008344911203e-16 -4.531288558514588e-16 -0.17403069944987556 -8.57135379382393e-16 7.944008344911203e-16 -8.57135379382393e-16 -0.1718792419142445" free_energy=-1953.1158053258025 pbc="T T T"
Si       0.44984716       0.44984716      -0.00000000       0.02222878       0.02222878      -0.00000000
Si      -0.44984717      -0.44984717       3.17091015      -0.02222878      -0.02222878       0.00000000
Si       2.18316783       3.08286215       4.75636523      -0.02222878       0.02222878       0.00000000
Si       3.08286215       2.18316783       1.58545508       0.02222878      -0.02222878       0.00000000
Si       0.74739191       3.49342232       0.14615655       0.05307861      -0.04328800       0.19410658
Si       0.86040733       1.88562308       1.73161163      -0.04328800      -0.05307861       0.19410658
Si       1.77260766       4.51863807       3.02475360       0.04328800      -0.05307861      -0.19410658
Si       1.88562308       0.86040733       4.61020867      -0.05307861      -0.04328800      -0.19410658
Si       3.38040690       4.40562265       1.43929852       0.05307861       0.04328800      -0.19410658
Si       3.49342232       0.74739191      -0.14615655      -0.04328800       0.05307861      -0.19410658
Si       4.40562265       3.38040690       4.90252178       0.04328800       0.05307861       0.19410658
Si       4.51863807       1.77260766       3.31706670      -0.05307861       0.04328800       0.19410658
12
Lattice="5.277164269617967 4.907928281025518e-61 2.2708021310965073e-47 -4.906791806404987e-61 5.277164269617966 -2.687302241909572e-17 -2.6706845105479126e-47 3.256859142476761e-17 6.315087326162845" Properties=species:S:1:pos:R:3:forces:R:3 cutoff=-1.0 nneightol=1.2 n_minim_iter=2 energy=-1953.1194692708434 stress="-0.16963411548809 7.512954946837524e-16 -1.0406437871115179e-16 7.512954946837524e-16 -0.16963411548808993 1.4833760690140144e-15 -1.0406437871115179e-16 1.4833760690140144e-15 -0.17584402466336066" free_energy=-1953.1194692708434 pbc="T T T"
Si       0.45117135       0.45117135      -0.00000000      -0.04649786      -0.04649786       0.00000000
Si      -0.45117135      -0.45117135       3.15754366       0.04649786       0.04649786       0.00000000
Si       2.18741078       3.08975348       4.73631549       0.04649786      -0.04649786      -0.00000000
Si       3.08975348       2.18741078       1.57877183      -0.04649786       0.04649786       0.00000000
Si       0.74986294       3.50008221       0.14877739       0.04811662       0.05117349       0.18323304
Si       0.86150008       1.88871919       1.72754922       0.05117349      -0.04811662       0.18323304
Si       1.77708205       4.52730133       3.00876628      -0.05117349      -0.04811662      -0.18323304
Si       1.88871919       0.86150008       4.58753811      -0.04811662       0.05117349      -0.18323304
Si       3.38844507       4.41566419       1.42999445       0.04811662      -0.05117349      -0.18323304
Si       3.50008221       0.74986294      -0.14877739       0.05117349       0.04811662      -0.18323304
Si       4.41566419       3.38844507       4.88509288      -0.05117349       0.04811662       0.18323304
Si       4.52730133       1.77708205       3.30632105      -0.04811662      -0.05117349       0.18323304
12
Lattice="5.264870924106128 4.896612543865959e-61 2.2612777226566564e-47 -4.89535100036356e-61 5.264870924106127 -2.426899359346292e-17 -2.688565814065441e-47 3.575926983241998e-17 6.34461290723939" Properties=species:S:1:pos:R:3:forces:R:3 cutoff=-1.0 nneightol=1.2 n_minim_iter=3 energy=-1953.1415073432279 stress="-0.1597277021039785 -4.1842757771820585e-16 -1.751438017436224e-16 -4.1842757771820585e-16 -0.1597277021039791 3.52260387917788e-16 -1.751438017436224e-16 3.52260387917788e-16 -0.15860628037500085" free_energy=-1953.1415073432279 pbc="T T T"
Si       0.45070379       0.45070379      -0.00000000       0.11468784       0.11468784      -0.00000000
Si      -0.45070380      -0.45070380       3.17230645      -0.11468784      -0.11468784      -0.00000000
Si       2.18173166       3.08313925       4.75845968      -0.11468784       0.11468784      -0.00000000
Si       3.08313925       2.18173166       1.58615323       0.11468784      -0.11468784       0.00000000
Si       0.75853864       3.48855838       0.18796016       0.10662614      -0.02106571      -0.09527545
Si       0.85612292       1.87389682       1.77411339      -0.02106571      -0.10662614      -0.09527545
Si       1.77631254       4.50633228       2.98434629       0.02106571      -0.10662614       0.09527545
Si       1.87389682       0.85612292       4.57049952      -0.10662614      -0.02106571       0.09527545
Si       3.39097410       4.40874800       1.39819307       0.10662614       0.02106571       0.09527545
Si       3.48855838       0.75853864      -0.18796016      -0.02106571       0.10662614       0.09527545
Si       4.40874800       3.39097410       4.94641984       0.02106571       0.10662614      -0.09527545
Si       4.50633228       1.77631254       3.36026661      -0.10662614       0.02106571      -0.09527545
12
Lattice="5.254812495831173 4.8786544978427205e-61 2.2549660471312983e-47 -4.875429375150403e-61 5.254812495831172 -3.9289510371778954e-17 -2.701432824848295e-47 1.7311318563273858e-17 6.368925063372545" Properties=species:S:1:pos:R:3:forces:R:3 cutoff=-1.0 nneightol=1.2 n_minim_iter=4 energy=-1953.1474047797105 stress="-0.15728674470793644 -9.437800715718525e-17 4.890532603316518e-16 -9.437800715718525e-17 -0.1572867447079372 -2.462034969317876e-16 4.890532603316518e-16 -2.462034969317876e-16 -0.15621770800537121" free_energy=-1953.1474047797105 pbc="T T T"
Si       0.45701160       0.45701160      -0.00000000       0.03325538       0.03325538       0.00000000
Si      -0.45701160      -0.45701160       3.18446253      -0.03325538      -0.03325538      -0.00000000
Si       2.17039464       3.08441785       4.77669380      -0.03325538       0.03325538       0.00000000
Si       3.08441785       2.17039464       1.59223127       0.03325538      -0.03325538       0.00000000
Si       0.76706726       3.48067853       0.19224390       0.00477071      -0.02276623      -0.06209486
Si       0.85327228       1.86033898       1.78447517      -0.02276623      -0.00477071      -0.06209486
Si       1.77413396       4.48774523       2.99221863       0.02276623      -0.00477071       0.06209486
Si       1.86033898       0.85327228       4.58444990      -0.00477071      -0.02276623       0.06209486
Si       3.39447351       4.40154021       1.39998737       0.00477071       0.02276623       0.06209486
Si       3.48067853       0.76706726      -0.19224390      -0.02276623       0.00477071       0.06209486
Si       4.40154021       3.39447351       4.96893770       0.02276623       0.00477071      -0.06209486
Si       4.48774523       1.77413396       3.37670643      -0.00477071       0.02276623      -0.06209486
12
Lattice="5.250110131428701 5.0595990494663434e-61 2.2516300280566793e-47 -4.889686888465704e-61 5.250110131428701 -3.9359922736254413e-17 -2.7079500753771623e-47 1.7295827215442092e-17 6.380339078682069" Properties=species:S:1:pos:R:3:forces:R:3 cutoff=-1.0 nneightol=1.2 n_minim_iter=5 energy=-1953.1481449345918 stress="-0.15791681426157145 -6.003183022142854e-16 1.739206753966855e-16 -6.003183022142854e-16 -0.15791681426157125 4.622628477648748e-16 1.739206753966855e-16 4.622628477648748e-16 -0.15671589238563247" free_energy=-1953.1481449345918 pbc="T T T"
Si       0.45769902       0.45769902      -0.00000000       0.01388735       0.01388735       0.00000000
Si      -0.45769902      -0.45769902       3.19016954      -0.01388735      -0.01388735      -0.00000000
Si       2.16735604       3.08275408       4.78525431      -0.01388735       0.01388735       0.00000000
Si       3.08275408       2.16735604       1.59508477       0.01388735      -0.01388735       0.00000000
Si       0.76489637       3.47470679       0.19046840       0.01785945       0.01347672      -0.04619173
Si       0.84965173       1.86015869       1.78555316       0.01347672      -0.01785945      -0.04619173
Si       1.77540334       4.48521376       2.99970114      -0.01347672      -0.01785945       0.04619173
Si       1.86015869       0.84965173       4.59478591      -0.01785945       0.01347672       0.04619173
Si       3.38995143       4.40045840       1.40461637       0.01785945      -0.01347672       0.04619173
Si       3.47470679       0.76489637      -0.19046840       0.01347672       0.01785945       0.04619173
Si       4.40045840       3.38995143       4.97572270      -0.01347672       0.01785945      -0.04619173
Si       4.48521376       1.77540334       3.38063793      -0.01785945      -0.01347672      -0.04619173
12
Lattice="5.255320547983748 5.2123750568796376e-61 2.256223133602603e-47 -4.9687752290665595e-61 5.255320547983749 -2.8856805631907196e-17 -2.69963616298497e-47 2.991103409641767e-17 6.367693705683777" Properties=species:S:1:pos:R:3:forces:R:3 cutoff=-1.0 nneightol=1.2 n_minim_iter=6 energy=-1953.1495345969101 stress="-0.15986459473960934 -1.861519388660518e-16 4.0990514897825604e-16 -1.861519388660518e-16 -0.15986459473961057 -4.884614250024843e-16 4.0990514897825604e-16 -4.884614250024843e-16 -0.15981757351197654" free_energy=-1953.1495345969101 pbc="T T T"
Si       0.45657799       0.45657799      -0.00000000       0.00117630       0.00117630      -0.00000000
Si      -0.45657800      -0.45657800       3.18384685      -0.00117630      -0.00117630       0.00000000
Si       2.17108228       3.08423827       4.77577028      -0.00117630       0.00117630       0.00000000
Si       3.08423827       2.17108228       1.59192343       0.00117630      -0.00117630       0.00000000
Si       0.76473933       3.48034918       0.18351499      -0.00244748       0.00049748       0.00053225
Si       0.85268891       1.86292094       1.77543842       0.00049748       0.00244748       0.00053225
Si       1.77497136       4.49058122       3.00033186      -0.00049748       0.00244748      -0.00053225
Si       1.86292094       0.85268891       4.59225529       0.00244748       0.00049748      -0.00053225
Si       3.39239960       4.40263163       1.40840843      -0.00244748      -0.00049748      -0.00053225
Si       3.48034918       0.76473933      -0.18351499       0.00049748      -0.00244748      -0.00053225
Si       4.40263163       3.39239960       4.95928527      -0.00049748      -0.00244748       0.00053225
Si       4.49058122       1.77497136       3.36736185       0.00244748      -0.00049748       0.00053225
