12
Lattice="5.796425903783504 1.2651567534661848e-63 2.406703319248358e-47 -2.3278038322404333e-63 5.796425903783504 6.480866797315879e-17 -2.8894615716653286e-47 -9.128731783789324e-17 7.033613290217324" Properties=species:S:1:pos:R:3:forces:R:3 cutoff=-1.0 nneightol=1.2 n_minim_iter=5 energy=-1955.9355557594806 stress="0.02550077362628976 -7.022004055767949e-16 -2.8878745799679794e-16 -7.022004055767949e-16 0.02550077362629029 5.1585494595231674e-17 -2.8878745799679794e-16 5.1585494595231674e-17 0.02548600705404982" free_energy=-1955.9355557594806 pbc="T T T"
Si       0.46480448       0.46480448       0.00000000      -0.00206408      -0.00206408      -0.00000000
Si      -0.46480448      -0.46480448       3.51680665       0.00206408       0.00206408       0.00000000
Si       2.43340847       3.36301743       5.27520997       0.00206408      -0.00206408       0.00000000
Si       3.36301743       2.43340847       1.75840332      -0.00206408       0.00206408      -0.00000000
Si       0.73838212       3.85133129      -0.08604284       0.00308715      -0.00108921      -0.00056437
Si       0.95311834       2.15983083       1.67236048      -0.00108921      -0.00308715      -0.00056437
Si       1.94509461       5.05804378       3.60284948       0.00108921      -0.00308715       0.00056437
Si       2.15983083       0.95311834       5.36125281      -0.00308715      -0.00108921       0.00056437
Si       3.63659507       4.84330756       1.84444616       0.00308715       0.00108921       0.00056437
Si       3.85133129       0.73838212       0.08604284      -0.00108921       0.00308715       0.00056437
Si       4.84330756       3.63659507       5.18916713       0.00108921       0.00308715      -0.00056437
Si       5.05804378       1.94509461       3.43076381      -0.00308715       0.00108921      -0.00056437
