12
Lattice="5.374891983605975 4.9908411875940485e-61 2.2653903089169796e-47 -4.9903160434742534e-61 5.374891983605975 -1.245963182861447e-17 -2.726109783420514e-47 1.499358591413852e-17 6.468000487007344" Properties=species:S:1:pos:R:3:forces:R:3 cutoff=-1.0 nneightol=1.2 n_minim_iter=1 energy=-1954.5282740020516 stress="-0.10933881787615442 9.37931345966003e-16 8.503861357070757e-18 9.37931345966003e-16 -0.10933881787615463 -8.585929189381353e-16 8.503861357070757e-18 -8.585929189381353e-16 -0.10818352908792829" free_energy=-1954.5282740020516 pbc="T T T"
Si       0.44935258       0.44935258      -0.00000000       0.00450022       0.00450022      -0.00000000
Si      -0.44935258      -0.44935258       3.23400024      -0.00450022      -0.00450022      -0.00000000
Si       2.23809341       3.13679857       4.85100037      -0.00450022       0.00450022      -0.00000000
Si       3.13679857       2.23809341       1.61700012       0.00450022      -0.00450022      -0.00000000
Si       0.73339349       3.57027316       0.07739051       0.02358419      -0.02405545       0.16205697
Si       0.88282717       1.95405250       1.69439063      -0.02405545      -0.02358419       0.16205697
Si       1.80461882       4.64149849       3.15660973       0.02405545      -0.02358419      -0.16205697
Si       1.95405250       0.88282717       4.77360985      -0.02358419      -0.02405545      -0.16205697
Si       3.42083948       4.49206481       1.53960961       0.02358419       0.02405545      -0.16205697
Si       3.57027316       0.73339349      -0.07739051      -0.02405545       0.02358419      -0.16205697
Si       4.49206481       3.42083948       4.92839088       0.02405545       0.02358419       0.16205697
Si       4.64149849       1.80461882       3.31139075      -0.02358419       0.02405545       0.16205697
12
Lattice="5.386862700836457 5.0010874768007385e-61 2.2865973418783763e-47 -5.001389404012151e-61 5.386862700836457 -3.3984147653600985e-17 -2.6952738036926925e-47 -9.786659920999486e-18 6.439285971621027" Properties=species:S:1:pos:R:3:forces:R:3 cutoff=-1.0 nneightol=1.2 n_minim_iter=2 energy=-1954.53215845443 stress="-0.10516332282562986 2.421093890076946e-16 1.9080771012213453e-16 2.421093890076946e-16 -0.10516332282563041 -1.7163688730297396e-16 1.9080771012213453e-16 -1.7163688730297396e-16 -0.11188054140928112" free_energy=-1954.53215845443 pbc="T T T"
Si       0.45049280       0.45049280      -0.00000000      -0.05026429      -0.05026429      -0.00000000
Si      -0.45049280      -0.45049280       3.21964299       0.05026429       0.05026429      -0.00000000
Si       2.24293855       3.14392415       4.82946448       0.05026429      -0.05026429       0.00000000
Si       3.14392415       2.24293855       1.60982149      -0.05026429       0.05026429      -0.00000000
Si       0.73575763       3.57747935       0.08203491       0.02896936       0.05818672       0.14747949
Si       0.88404799       1.95767371       1.69185640       0.05818672      -0.02896936       0.14747949
Si       1.80938335       4.65110506       3.13760808      -0.05818672      -0.02896936      -0.14747949
Si       1.95767371       0.88404799       4.74742957      -0.02896936       0.05818672      -0.14747949
Si       3.42918898       4.50281470       1.52778659       0.02896936      -0.05818672      -0.14747949
Si       3.57747935       0.73575763      -0.08203491       0.05818672       0.02896936      -0.14747949
Si       4.50281470       3.42918898       4.91149939      -0.05818672       0.02896936       0.14747949
Si       4.65110506       1.80938335       3.30167789      -0.02896936      -0.05818672       0.14747949
12
Lattice="5.3798826510708775 4.99460729688736e-61 2.281305930811243e-47 -4.994901749247563e-61 5.3798826510708775 -3.407238932735064e-17 -2.705203386128962e-47 -9.773978815672656e-18 6.456005925220667" Properties=species:S:1:pos:R:3:forces:R:3 cutoff=-1.0 nneightol=1.2 n_minim_iter=3 energy=-1954.5494500989132 stress="-0.10092075623282995 -1.2895047407173886e-16 -3.025090855023478e-16 -1.2895047407173886e-16 -0.10092075623283 -5.804163886943926e-17 -3.025090855023478e-16 -5.804163886943926e-17 -0.10123700713382014" free_energy=-1954.5494500989132 pbc="T T T"
Si       0.44918463       0.44918463      -0.00000000       0.06105663       0.06105663       0.00000000
Si      -0.44918464      -0.44918464       3.22800296      -0.06105663      -0.06105663      -0.00000000
Si       2.24075669       3.13912596       4.84200444      -0.06105663       0.06105663       0.00000000
Si       3.13912596       2.24075669       1.61400148       0.06105663      -0.06105663       0.00000000
Si       0.73879377       3.57111090       0.10818942       0.08864915       0.01463311      -0.01060142
Si       0.88116957       1.95114755       1.72219090       0.01463311      -0.08864915      -0.01060142
Si       1.80877175       4.64108888       3.11981354      -0.01463311      -0.08864915       0.01060142
Si       1.95114755       0.88116957       4.73381503      -0.08864915       0.01463311       0.01060142
Si       3.42873509       4.49871308       1.50581206       0.08864915      -0.01463311       0.01060142
Si       3.57111090       0.73879377      -0.10818942       0.01463311       0.08864915       0.01060142
Si       4.49871308       3.42873509       4.95019386      -0.01463311       0.08864915      -0.01060142
Si       4.64108888       1.80877175       3.33619238      -0.08864915      -0.01463311      -0.01060142
12
Lattice="5.375716857911392 4.990847829564881e-61 2.278344280978625e-47 -4.9910299432749946e-61 5.375716857911394 -3.157214915659572e-17 -2.710904336543378e-47 -6.675742034013194e-18 6.466015680807592" Properties=species:S:1:pos:R:3:forces:R:3 cutoff=-1.0 nneightol=1.2 n_minim_iter=4 energy=-1954.5538059324253 stress="-0.09906027730823964 -4.365655898649043e-16 -8.531898105213064e-16 -4.365655898649043e-16 -0.09906027730823957 4.245246420700126e-16 -8.531898105213064e-16 4.245246420700126e-16 -0.09940567817314756" free_energy=-1954.5538059324253 pbc="T T T"
Si       0.45430724       0.45430724      -0.00000000      -0.00636550      -0.00636550      -0.00000000
Si      -0.45430724      -0.45430724       3.23300784       0.00636550       0.00636550       0.00000000
Si       2.23355118       3.14216567       4.84951176       0.00636550      -0.00636550       0.00000000
Si       3.14216567       2.23355118       1.61650392      -0.00636550       0.00636550      -0.00000000
Si       0.74720424       3.56900546       0.11399716       0.00329404       0.01249557      -0.00256440
Si       0.88114704       1.94065419       1.73050108       0.01249557      -0.00329404      -0.00256440
Si       1.80671139       4.62851262       3.11901068      -0.01249557      -0.00329404       0.00256440
Si       1.94065419       0.88114704       4.73551460      -0.00329404       0.01249557       0.00256440
Si       3.43506267       4.49456982       1.50250676       0.00329404      -0.01249557       0.00256440
Si       3.56900546       0.74720424      -0.11399716       0.01249557       0.00329404       0.00256440
Si       4.49456982       3.43506267       4.96350892      -0.01249557       0.00329404      -0.00256440
Si       4.62851262       1.80671139       3.34700500      -0.00329404      -0.01249557      -0.00256440
12
Lattice="5.376671704690936 5.000770780751549e-61 2.2793213178768206e-47 -3.7165794103625055e-62 5.376671704690936 -2.750550610893361e-17 -2.709239313579888e-47 -1.828881781625055e-18 6.46371927650354" Properties=species:S:1:pos:R:3:forces:R:3 cutoff=-1.0 nneightol=1.2 n_minim_iter=5 energy=-1954.5538365082175 stress="-0.09906110799832982 -2.2359770828062154e-16 2.139333854938195e-16 -2.2359770828062154e-16 -0.0990611079983306 8.551022509575042e-16 2.139333854938195e-16 8.551022509575042e-16 -0.09943862683023104" free_energy=-1954.5538365082175 pbc="T T T"
Si       0.45408403       0.45408403      -0.00000000      -0.00168623      -0.00168623      -0.00000000
Si      -0.45408404      -0.45408404       3.23185964       0.00168623       0.00168623      -0.00000000
Si       2.23425182       3.14241988       4.84778946       0.00168623      -0.00168623       0.00000000
Si       3.14241988       2.23425182       1.61592982      -0.00168623       0.00168623      -0.00000000
Si       0.74756004       3.57026879       0.11396511       0.00087802       0.00388574      -0.00253049
Si       0.88193294       1.94077581       1.72989493       0.00388574      -0.00087802      -0.00253049
Si       1.80640291       4.62911166       3.11789453      -0.00388574      -0.00087802       0.00253049
Si       1.94077581       0.88193294       4.73382435      -0.00087802       0.00388574       0.00253049
Si       3.43589589       4.49473876       1.50196471       0.00087802      -0.00388574       0.00253049
Si       3.57026879       0.74756004      -0.11396511       0.00388574       0.00087802       0.00253049
Si       4.49473876       3.43589589       4.96175457      -0.00388574       0.00087802      -0.00253049
Si       4.62911166       1.80640291       3.34582475      -0.00087802      -0.00388574      -0.00253049
