12
Lattice="5.171605107482768 7.309605041896155e-61 2.234733627978785e-47 -4.930017264945561e-61 5.171605107482767 -8.465417730231756e-18 -2.7182308534831857e-47 5.383992848958148e-17 6.370031663896297" Properties=species:S:1:pos:R:3:forces:R:3 cutoff=-1.0 nneightol=1.2 n_minim_iter=7 energy=-1952.1822711958764 stress="-0.18983119182779704 -6.162214902527584e-16 -7.401174435474637e-16 -6.162214902527584e-16 -0.1898311918277975 -1.1306218486065148e-16 -7.401174435474637e-16 -1.1306218486065148e-16 -0.1899610549439651" free_energy=-1952.1822711958764 pbc="T T T"
Si       0.47132797       0.47132797      -0.00000000      -0.00209362      -0.00209362      -0.00000000
Si      -0.47132798      -0.47132798       3.18501583       0.00209362       0.00209362       0.00000000
Si       2.11447458       3.05713053       4.77752375       0.00209362      -0.00209362       0.00000000
Si       3.05713053       2.11447458       1.59250792      -0.00209362       0.00209362      -0.00000000
Si       0.77704930       3.41742450       0.23492247      -0.00124008       0.00225097       0.00297669
Si       0.83162195       1.80875325       1.82743039       0.00225097       0.00124008       0.00297669
Si       1.75418060       4.39455580       2.95009336      -0.00225097       0.00124008      -0.00297669
Si       1.80875325       0.83162195       4.54260128       0.00124008       0.00225097      -0.00297669
Si       3.36285185       4.33998315       1.35758544      -0.00124008      -0.00225097      -0.00297669
Si       3.41742450       0.77704930      -0.23492247       0.00225097      -0.00124008      -0.00297669
Si       4.33998315       3.36285185       5.01244622      -0.00225097      -0.00124008       0.00297669
Si       4.39455580       1.75418060       3.41993830       0.00124008      -0.00225097       0.00297669
