12
Lattice="5.836069075166694 8.043323728807238e-63 2.4407928566494554e-47 -8.281486746611628e-63 5.836069075166694 5.694607878214535e-17 -2.9692922051567913e-47 -6.927648422987546e-17 7.099739892486027" Properties=species:S:1:pos:R:3:forces:R:3 cutoff=-1.0 nneightol=1.2 n_minim_iter=1 energy=-1955.5316922678653 stress="0.048407654330733726 3.342076169379255e-18 1.798103336420521e-17 3.342076169379255e-18 0.04840765433073303 6.6321425674078265e-18 1.798103336420521e-17 6.6321425674078265e-18 0.047211379027411876" free_energy=-1955.5316922678653 pbc="T T T"
Si       0.46457477       0.46457477       0.00000000      -0.00048366      -0.00048366       0.00000000
Si      -0.46457478      -0.46457478       3.54986995       0.00048366       0.00048366      -0.00000000
Si       2.45345976       3.38260931       5.32480492       0.00048366      -0.00048366      -0.00000000
Si       3.38260931       2.45345976       1.77493497      -0.00048366       0.00048366       0.00000000
Si       0.74284133       3.87568488      -0.10114071       0.01787204       0.00047197      -0.06111962
Si       0.95765034       2.17519320       1.67379427       0.00047197      -0.01787204      -0.06111962
Si       1.96038419       5.09322774       3.65101065      -0.00047197      -0.01787204       0.06111962
Si       2.17519320       0.95765034       5.42594563      -0.01787204       0.00047197       0.06111962
Si       3.66087587       4.87841873       1.87607568       0.01787204      -0.00047197       0.06111962
Si       3.87568488       0.74284133       0.10114071       0.00047197       0.01787204       0.06111962
Si       4.87841873       3.66087587       5.22366421      -0.00047197       0.01787204      -0.06111962
Si       5.09322774       1.96038419       3.44872924      -0.01787204      -0.00047197      -0.06111962
12
Lattice="5.830776959201097 8.036298103367892e-63 2.456178734716726e-47 -8.272242970308028e-63 5.830776959201097 5.70494962227434e-17 -2.9517892595571853e-47 -6.92136646875583e-17 7.112633439228759" Properties=species:S:1:pos:R:3:forces:R:3 cutoff=-1.0 nneightol=1.2 n_minim_iter=2 energy=-1955.5321131327019 stress="0.047611471325563835 -1.0735534182937597e-16 -2.2919988858089576e-16 -1.0735534182937597e-16 0.047611471325563995 1.123052373096479e-16 -2.2919988858089576e-16 1.123052373096479e-16 0.048306337704842404" free_energy=-1955.5321131327019 pbc="T T T"
Si       0.46414895       0.46414895       0.00000000       0.00414982       0.00414982       0.00000000
Si      -0.46414896      -0.46414896       3.55631672      -0.00414982      -0.00414982      -0.00000000
Si       2.45123952       3.37953743       5.33447508      -0.00414982       0.00414982       0.00000000
Si       3.37953743       2.45123952       1.77815836       0.00414982      -0.00414982       0.00000000
Si       0.74233572       3.87217486      -0.10190046       0.01909901      -0.00786879      -0.06316641
Si       0.95678638       2.17305275       1.67625790      -0.00786879      -0.01909901      -0.06316641
Si       1.95860209       5.08844123       3.65821718       0.00786879      -0.01909901       0.06316641
Si       2.17305275       0.95678638       5.43637554      -0.01909901      -0.00786879       0.06316641
Si       3.65772420       4.87399057       1.88005882       0.01909901       0.00786879       0.06316641
Si       3.87217486       0.74233572       0.10190046      -0.00786879       0.01909901       0.06316641
Si       4.87399057       3.65772420       5.23257462       0.00786879       0.01909901      -0.06316641
Si       5.08844123       1.95860209       3.45441626      -0.01909901       0.00786879      -0.06316641
12
Lattice="5.829087514838712 8.03405590537589e-63 2.454860571026087e-47 -8.165944860912455e-63 5.829087514838712 5.70825703245526e-17 -2.9542787533323017e-47 -6.919361030433894e-17 7.1167569456236635" Properties=species:S:1:pos:R:3:forces:R:3 cutoff=-1.0 nneightol=1.2 n_minim_iter=3 energy=-1955.5348702899494 stress="0.046849415165006875 -5.551666469203247e-16 1.5290065728924756e-16 -5.551666469203247e-16 0.04684941516500689 3.889254832796269e-17 1.5290065728924756e-16 3.889254832796269e-17 0.046840393850615454" free_energy=-1955.5348702899494 pbc="T T T"
Si       0.46439344       0.46439344       0.00000000      -0.03479244      -0.03479244       0.00000000
Si      -0.46439345      -0.46439345       3.55837847       0.03479244       0.03479244      -0.00000000
Si       2.45015031       3.37893720       5.33756771       0.03479244      -0.03479244       0.00000000
Si       3.37893720       2.45015031       1.77918924      -0.03479244       0.03479244      -0.00000000
Si       0.74507419       3.87030752      -0.11190147      -0.01650555       0.00101067      -0.00698942
Si       0.95576377       2.16946956       1.66728776       0.00101067       0.01650555      -0.00698942
Si       1.95877999       5.08401331       3.67027995      -0.00101067       0.01650555       0.00698942
Si       2.16946956       0.95576377       5.44946918       0.01650555       0.00101067       0.00698942
Si       3.65961795       4.87332374       1.89109071      -0.01650555      -0.00101067       0.00698942
Si       3.87030752       0.74507419       0.11190147       0.00101067      -0.01650555       0.00698942
Si       4.87332374       3.65961795       5.22566623      -0.00101067      -0.01650555      -0.00698942
Si       5.08401331       1.95877999       3.44647700       0.01650555      -0.00101067      -0.00698942
12
Lattice="5.8297026496354984 8.287681249265203e-63 2.4553807346722053e-47 -9.0673806062834e-63 5.8297026496354984 5.898482471390228e-17 -2.9533230315158817e-47 -6.686872016877607e-17 7.115255142140526" Properties=species:S:1:pos:R:3:forces:R:3 cutoff=-1.0 nneightol=1.2 n_minim_iter=4 energy=-1955.5356354205774 stress="0.046576254715898095 -1.5270427556638883e-16 2.2229872995477723e-16 -1.5270427556638883e-16 0.04657625471589803 -2.737937839131279e-16 2.2229872995477723e-16 -2.737937839131279e-16 0.0465367624415539" free_energy=-1955.5356354205774 pbc="T T T"
Si       0.46025346       0.46025346       0.00000000       0.00235877       0.00235877       0.00000000
Si      -0.46025346      -0.46025346       3.55762757      -0.00235877      -0.00235877       0.00000000
Si       2.45459786       3.37510478       5.33644136      -0.00235877       0.00235877       0.00000000
Si       3.37510478       2.45459786       1.77881379       0.00235877      -0.00235877       0.00000000
Si       0.74392552       3.87062117      -0.11548124      -0.00508969      -0.02126713      -0.00059499
Si       0.95576985       2.17092580       1.66333255      -0.02126713       0.00508969      -0.00059499
Si       1.95908147       5.08577712       3.67310881       0.02126713       0.00508969       0.00059499
Si       2.17092580       0.95576985       5.45192259       0.00508969      -0.02126713       0.00059499
Si       3.65877684       4.87393280       1.89429502      -0.00508969       0.02126713       0.00059499
Si       3.87062117       0.74392552       0.11548124      -0.02126713      -0.00508969       0.00059499
Si       4.87393280       3.65877684       5.22096012       0.02126713      -0.00508969      -0.00059499
Si       5.08577712       1.95908147       3.44214633       0.00508969       0.02126713      -0.00059499
12
Lattice="5.828727564755251 8.294990291261173e-63 2.454668208053826e-47 -9.033515212626188e-63 5.828727564755251 5.535596040060953e-17 -2.954701094879722e-47 -7.132839059546671e-17 7.117635956119743" Properties=species:S:1:pos:R:3:forces:R:3 cutoff=-1.0 nneightol=1.2 n_minim_iter=5 energy=-1955.5358835347567 stress="0.046469342423569635 -6.103974372139668e-18 -2.4692984029030415e-17 -6.103974372139668e-18 0.046469342423569954 4.409711234381376e-17 -2.4692984029030415e-17 4.409711234381376e-17 0.046453765690527386" free_energy=-1955.5358835347567 pbc="T T T"
Si       0.45906935       0.45906935       0.00000000      -0.00169260      -0.00169260      -0.00000000
Si      -0.45906936      -0.45906936       3.55881798       0.00169260       0.00169260      -0.00000000
Si       2.45529442       3.37343314       5.33822697       0.00169260      -0.00169260       0.00000000
Si       3.37343314       2.45529442       1.77940899      -0.00169260       0.00169260       0.00000000
Si       0.74271271       3.86724745      -0.11669763       0.00412964      -0.00111370       0.00046967
Si       0.95288367       2.17165107       1.66271136      -0.00111370      -0.00412964       0.00046967
Si       1.96148011       5.08601485       3.67551561       0.00111370      -0.00412964      -0.00046967
Si       2.17165107       0.95288367       5.45492459      -0.00412964      -0.00111370      -0.00046967
Si       3.65707649       4.87584389       1.89610662       0.00412964       0.00111370      -0.00046967
Si       3.86724745       0.74271271       0.11669763      -0.00111370       0.00412964      -0.00046967
Si       4.87584389       3.65707649       5.22152934       0.00111370       0.00412964       0.00046967
Si       5.08601485       1.96148011       3.44212035      -0.00412964       0.00111370       0.00046967
