12
Lattice="6.0048742044096 -5.9634353853506055e-62 2.6234711436346665e-47 7.125485445988232e-62 6.0048742044096 2.1792581252996253e-16 -3.289251597485096e-47 -2.7715926391021685e-16 7.620663501709317" Properties=species:S:1:pos:R:3:forces:R:3 cutoff=-1.0 nneightol=1.2 n_minim_iter=5 energy=-1953.2929243112503 stress="0.08405509858825 -7.333076462460695e-17 -1.3615684671345758e-16 -7.333076462460695e-17 0.08405509858824976 -2.868586384764239e-17 -1.3615684671345758e-16 -2.868586384764239e-17 0.0840796065048106" free_energy=-1953.2929243112503 pbc="T T T"
Si       0.41869588       0.41869588       0.00000000      -0.00141945      -0.00141945       0.00000000
Si      -0.41869589      -0.41869589       3.81033175       0.00141945       0.00141945       0.00000000
Si       2.58374121       3.42113299       5.71549763       0.00141945      -0.00141945      -0.00000000
Si       3.42113299       2.58374121       1.90516588      -0.00141945       0.00141945      -0.00000000
Si       0.78822778       3.93890088      -0.25086615       0.00368021      -0.00115423       0.00135027
Si       0.93646378       2.21420931       1.65429972      -0.00115423      -0.00368021       0.00135027
Si       2.06597332       5.21664642       4.06119790       0.00115423      -0.00368021      -0.00135027
Si       2.21420931       0.93646378       5.96636378      -0.00368021      -0.00115423      -0.00135027
Si       3.79066489       5.06841042       2.15603203       0.00368021       0.00115423      -0.00135027
Si       3.93890088       0.78822778       0.25086615      -0.00115423       0.00368021      -0.00135027
Si       5.06841042       3.79066489       5.46463147       0.00115423       0.00368021       0.00135027
Si       5.21664642       2.06597332       3.55946560      -0.00368021       0.00115423       0.00135027
