12
Lattice="5.753568604374983 1.4950874121864946e-63 2.3765629730583627e-47 -3.9871509583964675e-63 5.753568604374983 6.951737155545472e-17 -2.836298334954722e-47 8.561092846947529e-17 6.9727694737759505" Properties=species:S:1:pos:R:3:forces:R:3 cutoff=-1.0 nneightol=1.2 n_minim_iter=5 energy=-1956.0426763116986 stress="0.013324457050003166 -1.4848619125070745e-16 -5.468789401594125e-16 -1.4848619125070745e-16 0.013324457050002738 -2.5860605582975875e-16 -5.468789401594125e-16 -2.5860605582975875e-16 0.01334467068338081" free_energy=-1956.0426763116986 pbc="T T T"
Si       0.46362339       0.46362339       0.00000000      -0.00174446      -0.00174446       0.00000000
Si      -0.46362339      -0.46362339       3.48638474       0.00174446       0.00174446       0.00000000
Si       2.41316091       3.34040769       5.22957711       0.00174446      -0.00174446       0.00000000
Si       3.34040769       2.41316091       1.74319237      -0.00174446       0.00174446      -0.00000000
Si       0.73505836       3.82341766      -0.07130658       0.00207074      -0.00100679      -0.00087300
Si       0.94663336       2.14172594       1.67188579      -0.00100679      -0.00207074      -0.00087300
Si       1.93015094       5.01851024       3.55769131       0.00100679      -0.00207074       0.00087300
Si       2.14172594       0.94663336       5.30088368      -0.00207074      -0.00100679       0.00087300
Si       3.61184266       4.80693524       1.81449894       0.00207074       0.00100679       0.00087300
Si       3.82341766       0.73505836       0.07130658      -0.00100679       0.00207074       0.00087300
Si       4.80693524       3.61184266       5.15827053       0.00100679       0.00207074      -0.00087300
Si       5.01851024       1.93015094       3.41507816      -0.00207074       0.00100679      -0.00087300
