12
Lattice="5.613198707930144 1.695152829393481e-63 2.300394146922702e-47 -1.6859167007300708e-63 5.613198707930144 -2.2537105456073408e-18 -2.7878295676616457e-47 2.731254078523843e-18 6.802591350730658" Properties=species:S:1:pos:R:3:forces:R:3 cutoff=-1.0 nneightol=1.2 n_minim_iter=1 energy=-1956.079892241352 stress="-3.840144269905709e-05 3.5735017174858824e-17 4.2127233286704777e-16 3.5735017174858824e-17 -3.84014426993399e-05 1.449601999563115e-16 4.2127233286704777e-16 1.449601999563115e-16 7.678061863326408e-05" free_energy=-1956.079892241352 pbc="T T T"
Si       0.45360115       0.45360115      -0.00000000      -0.00226212      -0.00226212       0.00000000
Si      -0.45360116      -0.45360116       3.40129568       0.00226212       0.00226212       0.00000000
Si       2.35299820       3.26020051       5.10194351       0.00226212      -0.00226212      -0.00000000
Si       3.26020051       2.35299820       1.70064784      -0.00226212       0.00226212      -0.00000000
Si       0.72092123       3.72940239      -0.05603723      -0.00220875       0.00005090       0.00192650
Si       0.92280304       2.08567812       1.64461061       0.00005090       0.00220875       0.00192650
Si       1.88379631       4.89227747       3.45733291      -0.00005090       0.00220875      -0.00192650
Si       2.08567812       0.92280304       5.15798074       0.00220875       0.00005090      -0.00192650
Si       3.52752059       4.69039567       1.75668507      -0.00220875      -0.00005090      -0.00192650
Si       3.72940239       0.72092123       0.05603723       0.00005090      -0.00220875      -0.00192650
Si       4.69039567       3.52752059       5.04590628      -0.00005090      -0.00220875       0.00192650
Si       4.89227747       1.88379631       3.34525845       0.00220875      -0.00005090       0.00192650
