12
Lattice="5.966301894328062 -5.925399294036389e-62 2.56085399970485e-47 3.0859803313490953e-62 5.966301894328062 2.1651460632797244e-16 -3.1405896932302626e-47 -3.428412188042965e-17 7.4107369234133165" Properties=species:S:1:pos:R:3:forces:R:3 cutoff=-1.0 nneightol=1.2 n_minim_iter=5 energy=-1954.5685771471553 stress="0.06942472045637282 -3.034100480038565e-17 5.4091020766600234e-18 -3.034100480038565e-17 0.069424720456373 -4.494086881050967e-17 5.4091020766600234e-18 -4.494086881050967e-17 0.06939423672409208" free_energy=-1954.5685771471553 pbc="T T T"
Si       0.44631299       0.44631299       0.00000000      -0.00140116      -0.00140116       0.00000000
Si      -0.44631300      -0.44631300       3.70536846       0.00140116       0.00140116      -0.00000000
Si       2.53683795       3.42946394       5.55805269       0.00140116      -0.00140116       0.00000000
Si       3.42946394       2.53683795       1.85268423      -0.00140116       0.00140116      -0.00000000
Si       0.76903192       3.93939267      -0.17840568       0.00382530      -0.00105123       0.00122545
Si       0.95624172       2.21411902       1.67427855      -0.00105123      -0.00382530       0.00122545
Si       2.02690922       5.19726997       3.88377414       0.00105123      -0.00382530      -0.00122545
Si       2.21411902       0.95624172       5.73645837      -0.00382530      -0.00105123      -0.00122545
Si       3.75218287       5.01006017       2.03108991       0.00382530       0.00105123      -0.00122545
Si       3.93939267       0.76903192       0.17840568      -0.00105123       0.00382530      -0.00122545
Si       5.01006017       3.75218287       5.37964702       0.00105123       0.00382530       0.00122545
Si       5.19726997       2.02690922       3.52696279      -0.00382530       0.00105123       0.00122545
