12
Lattice="5.56414238674421 5.317592880168376e-61 2.318482738259953e-47 -5.530332711202907e-61 5.56414238674421 9.638577546235982e-18 -2.7630537977215615e-47 7.559455508534772e-17 6.745555736951354" Properties=species:S:1:pos:R:3:forces:R:3 cutoff=-1.0 nneightol=1.2 n_minim_iter=5 energy=-1955.9183946818127 stress="-0.030070519539288423 6.537184618263115e-17 5.183896031214288e-16 6.537184618263115e-17 -0.030070519539288333 -2.4809736998511144e-16 5.183896031214288e-16 -2.4809736998511144e-16 -0.030041751868307556" free_energy=-1955.9183946818127 pbc="T T T"
Si       0.45252491       0.45252491       0.00000000       0.00253800       0.00253800      -0.00000000
Si      -0.45252492      -0.45252492       3.37277787      -0.00253800      -0.00253800      -0.00000000
Si       2.32954627       3.23459611       5.05916680      -0.00253800       0.00253800       0.00000000
Si       3.23459611       2.32954627       1.68638893       0.00253800      -0.00253800      -0.00000000
Si       0.72530976       3.69468503      -0.02130830      -0.00179413       0.00106508       0.00026267
Si       0.91261384       2.05676143       1.66508064       0.00106508       0.00179413       0.00026267
Si       1.86945735       4.83883262       3.39408617      -0.00106508       0.00179413      -0.00026267
Si       2.05676143       0.91261384       5.08047510       0.00179413       0.00106508      -0.00026267
Si       3.50738095       4.65152854       1.70769723      -0.00179413      -0.00106508      -0.00026267
Si       3.69468503       0.72530976       0.02130830       0.00106508      -0.00179413      -0.00026267
Si       4.65152854       3.50738095       5.03785851      -0.00106508      -0.00179413       0.00026267
Si       4.83883262       1.86945735       3.35146957       0.00179413      -0.00106508       0.00026267
