12
Lattice="5.862964283291832 8.333159618745753e-63 2.4853809205739683e-47 -9.205232958875502e-63 5.862964283291832 5.2376457043668886e-17 -3.008523583584511e-47 -7.239973668472267e-17 7.194632669658478" Properties=species:S:1:pos:R:3:forces:R:3 cutoff=-1.0 nneightol=1.2 n_minim_iter=5 energy=-1955.2563358877135 stress="0.05512550375767882 -5.977142267659679e-17 -1.918269820779155e-16 -5.977142267659679e-17 0.05512550375767814 7.128503100978682e-17 -1.918269820779155e-16 7.128503100978682e-17 0.05511355732212241" free_energy=-1955.2563358877135 pbc="T T T"
Si       0.45518604       0.45518604       0.00000000      -0.00146567      -0.00146567       0.00000000
Si      -0.45518604      -0.45518604       3.59731633       0.00146567       0.00146567       0.00000000
Si       2.47629610       3.38666818       5.39597450       0.00146567      -0.00146567       0.00000000
Si       3.38666818       2.47629610       1.79865817      -0.00146567       0.00146567       0.00000000
Si       0.74907189       3.88478392      -0.13488611       0.00411621      -0.00112111       0.00083272
Si       0.95330177       2.18241025       1.66377206      -0.00112111      -0.00411621       0.00083272
Si       1.97818036       5.11389239       3.73220245       0.00112111      -0.00411621      -0.00083272
Si       2.18241025       0.95330177       5.53086061      -0.00411621      -0.00112111      -0.00083272
Si       3.68055403       4.90966250       1.93354428       0.00411621       0.00112111      -0.00083272
Si       3.88478392       0.74907189       0.13488611      -0.00112111       0.00411621      -0.00083272
Si       4.90966250       3.68055403       5.26108839       0.00112111       0.00411621       0.00083272
Si       5.11389239       1.97818036       3.46243022      -0.00411621       0.00112111       0.00083272
