12
Lattice="5.7075380836094505 1.4831262004751041e-63 2.3575496547503514e-47 -3.9552523842061416e-63 5.7075380836094505 6.896120875720191e-17 -2.8136069761856435e-47 8.492601170013769e-17 6.916984928196384" Properties=species:S:1:pos:R:3:forces:R:3 cutoff=-1.0 nneightol=1.2 n_minim_iter=5 energy=-1956.0426763116986 stress="0.013324457050003166 -1.4848619125070745e-16 -5.468789401594125e-16 -1.4848619125070745e-16 0.013324457050002738 -2.5860605582975875e-16 -5.468789401594125e-16 -2.5860605582975875e-16 0.01334467068338081" free_energy=-1956.0426763116986 pbc="T T T"
Si       0.45991424       0.45991424       0.00000000      -0.00174446      -0.00174446       0.00000000
Si      -0.45991425      -0.45991425       3.45849246       0.00174446       0.00174446       0.00000000
Si       2.39385479       3.31368328       5.18773870       0.00174446      -0.00174446       0.00000000
Si       3.31368328       2.39385479       1.72924623      -0.00174446       0.00174446      -0.00000000
Si       0.72917764       3.79282901      -0.07073610       0.00207074      -0.00100679      -0.00087300
Si       0.93905997       2.12459139       1.65851013      -0.00100679      -0.00207074      -0.00087300
Si       1.91470907       4.97836044       3.52922856       0.00100679      -0.00207074       0.00087300
Si       2.12459139       0.93905997       5.25847479      -0.00207074      -0.00100679       0.00087300
Si       3.58294668       4.76847811       1.79998233       0.00207074       0.00100679       0.00087300
Si       3.79282901       0.72917764       0.07073610      -0.00100679       0.00207074       0.00087300
Si       4.76847811       3.58294668       5.11700260       0.00100679       0.00207074      -0.00087300
Si       4.97836044       1.91470907       3.38775637      -0.00207074       0.00100679      -0.00087300
