12
Lattice="5.9060758630495584 8.394435051816568e-63 2.503656436611309e-47 -8.618097771676517e-63 5.9060758630495584 5.276159188266154e-17 -3.0723176062622885e-47 -6.47454520137471e-17 7.247536280388199" Properties=species:S:1:pos:R:3:forces:R:3 cutoff=-1.0 nneightol=1.2 n_minim_iter=1 energy=-1954.9260533994407 stress="0.06555076724983469 9.281500436215992e-17 3.1763266033449745e-16 9.281500436215992e-17 0.06555076724983433 2.301896337499427e-16 3.1763266033449745e-16 2.301896337499427e-16 0.0638148180777537" free_energy=-1954.9260533994407 pbc="T T T"
Si       0.45853311       0.45853311       0.00000000      -0.00524112      -0.00524112      -0.00000000
Si      -0.45853312      -0.45853312       3.62376814       0.00524112       0.00524112       0.00000000
Si       2.49450481       3.41157105       5.43565221       0.00524112      -0.00524112       0.00000000
Si       3.41157105       2.49450481       1.81188407      -0.00524112       0.00524112       0.00000000
Si       0.75457997       3.91334953      -0.13587796       0.02477752      -0.00510958      -0.06155237
Si       0.96031160       2.19845796       1.67600611      -0.00510958      -0.02477752      -0.06155237
Si       1.99272633       5.15149589       3.75964610       0.00510958      -0.02477752       0.06155237
Si       2.19845796       0.96031160       5.57153017      -0.02477752      -0.00510958       0.06155237
Si       3.70761790       4.94576426       1.94776203       0.02477752       0.00510958       0.06155237
Si       3.91334953       0.75457997       0.13587796      -0.00510958       0.02477752       0.06155237
Si       4.94576426       3.70761790       5.29977425       0.00510958       0.02477752      -0.06155237
Si       5.15149589       1.99272633       3.48789018      -0.02477752       0.00510958      -0.06155237
12
Lattice="5.89912552406901 8.15090647691328e-63 2.5181829240748195e-47 -9.198877826882878e-63 5.89912552406901 1.3919189619397054e-16 -3.056565429192472e-47 4.778853283675354e-17 7.264624409232923" Properties=species:S:1:pos:R:3:forces:R:3 cutoff=-1.0 nneightol=1.2 n_minim_iter=2 energy=-1954.9267164195403 stress="0.06455804523955994 -1.419903016559829e-16 -9.347738817802381e-17 -1.419903016559829e-16 0.06455804523955971 2.2266732094304548e-17 -9.347738817802381e-17 2.2266732094304548e-17 0.06506999094643248" free_energy=-1954.9267164195403 pbc="T T T"
Si       0.45795137       0.45795137       0.00000000      -0.00032106      -0.00032106      -0.00000000
Si      -0.45795138      -0.45795138       3.63231220       0.00032106       0.00032106       0.00000000
Si       2.49161139       3.40751413       5.44846831       0.00032106      -0.00032106      -0.00000000
Si       3.40751413       2.49161139       1.81615610      -0.00032106       0.00032106       0.00000000
Si       0.75389118       3.90870317      -0.13669495       0.02710283      -0.01309948      -0.06605854
Si       0.95914041       2.19567158       1.67946115      -0.01309948      -0.02710283      -0.06605854
Si       1.99042234       5.14523434       3.76900716       0.01309948      -0.02710283       0.06605854
Si       2.19567158       0.95914041       5.58516326      -0.02710283      -0.01309948       0.06605854
Si       3.70345394       4.93998511       1.95285105       0.02710283       0.01309948       0.06605854
Si       3.90870317       0.75389118       0.13669495      -0.01309948       0.02710283       0.06605854
Si       4.93998511       3.70345394       5.31177336       0.01309948       0.02710283      -0.06605854
Si       5.14523434       1.99042234       3.49561725      -0.02710283       0.01309948      -0.06605854
12
Lattice="5.8956948671960525 8.144326641650595e-63 2.5153999854055176e-47 -9.199847391167002e-63 5.8956948671960525 1.4008759495057075e-16 -3.0618242962304817e-47 4.866425645757895e-17 7.273081320691585" Properties=species:S:1:pos:R:3:forces:R:3 cutoff=-1.0 nneightol=1.2 n_minim_iter=3 energy=-1954.93053605469 stress="0.06333927848780668 -4.3765772282110643e-16 -9.216334220081025e-18 -4.3765772282110643e-16 0.06333927848780684 3.059274012355793e-17 -9.216334220081025e-18 3.059274012355793e-17 0.06332350941929621" free_energy=-1954.93053605469 pbc="T T T"
Si       0.45740334       0.45740334       0.00000000      -0.04180687      -0.04180687       0.00000000
Si      -0.45740335      -0.45740335       3.63654066       0.04180687       0.04180687       0.00000000
Si       2.49044408       3.40525078       5.45481099       0.04180687      -0.04180687      -0.00000000
Si       3.40525078       2.49044408       1.81827033      -0.04180687       0.04180687       0.00000000
Si       0.75835686       3.90437008      -0.14895585      -0.01753201       0.00073663      -0.00696756
Si       0.95652265       2.18949057       1.66931448       0.00073663       0.01753201      -0.00696756
Si       1.99132478       5.13733800       3.78549652      -0.00073663       0.01753201       0.00696756
Si       2.18949057       0.95652265       5.60376685       0.01753201       0.00073663       0.00696756
Si       3.70620430       4.93917221       1.96722619      -0.01753201      -0.00073663       0.00696756
Si       3.90437008       0.75835686       0.14895585       0.00073663      -0.01753201       0.00696756
Si       4.93917221       3.70620430       5.30585514      -0.00073663      -0.01753201      -0.00696756
Si       5.13733800       1.99132478       3.48758481       0.01753201      -0.00073663      -0.00696756
12
Lattice="5.8958792562319795 7.936515992650308e-63 2.515557474602949e-47 -9.204631387621701e-63 5.8958792562319795 1.407125424589366e-16 -3.061531684502773e-47 4.94471771557362e-17 7.272626407887536" Properties=species:S:1:pos:R:3:forces:R:3 cutoff=-1.0 nneightol=1.2 n_minim_iter=4 energy=-1954.9317166676194 stress="0.0629099461060158 -8.702187999525232e-17 -4.511886652506397e-16 -8.702187999525232e-17 0.06290994610601566 1.0074238127658979e-16 -4.511886652506397e-16 1.0074238127658979e-16 0.0628711756195483" free_energy=-1954.9317166676194 pbc="T T T"
Si       0.45152694       0.45152694       0.00000000       0.00254512       0.00254512      -0.00000000
Si      -0.45152695      -0.45152695       3.63631320      -0.00254512      -0.00254512      -0.00000000
Si       2.49641268       3.39946657       5.45446981      -0.00254512       0.00254512       0.00000000
Si       3.39946657       2.49641268       1.81815660       0.00254512      -0.00254512       0.00000000
Si       0.75745701       3.90394378      -0.15366108      -0.00632737      -0.02488090       0.00086243
Si       0.95600415       2.19048261       1.66449552      -0.02488090       0.00632737       0.00086243
Si       1.99193547       5.13842224       3.78997429       0.02488090       0.00632737      -0.00086243
Si       2.19048261       0.95600415       5.60813089       0.00632737      -0.02488090      -0.00086243
Si       3.70539664       4.93987510       1.97181769      -0.00632737       0.02488090      -0.00086243
Si       3.90394378       0.75745701       0.15366108      -0.02488090      -0.00632737      -0.00086243
Si       4.93987510       3.70539664       5.30080872       0.02488090      -0.00632737       0.00086243
Si       5.13842224       1.99193547       3.48265212       0.00632737       0.02488090       0.00086243
12
Lattice="5.894821722346199 -3.5042396725743654e-62 2.514732588522391e-47 -5.4581458920449935e-62 5.894821722346199 1.2284858835384063e-16 -3.0631131535356986e-47 2.72577275135004e-17 7.27523606738741" Properties=species:S:1:pos:R:3:forces:R:3 cutoff=-1.0 nneightol=1.2 n_minim_iter=5 energy=-1954.932098038365 stress="0.06275918166816692 -8.109516381310209e-17 -2.3977908154710607e-17 -8.109516381310209e-17 0.06275918166816664 5.98765806640686e-17 -2.3977908154710607e-17 5.98765806640686e-17 0.0627400022287358" free_energy=-1954.932098038365 pbc="T T T"
Si       0.44985177       0.44985177       0.00000000      -0.00145009      -0.00145009      -0.00000000
Si      -0.44985177      -0.44985177       3.63761803       0.00145009       0.00145009      -0.00000000
Si       2.49755909       3.39726263       5.45642705       0.00145009      -0.00145009      -0.00000000
Si       3.39726263       2.49755909       1.81880902      -0.00145009       0.00145009      -0.00000000
Si       0.75606895       3.89954063      -0.15504988       0.00399400      -0.00105817       0.00105655
Si       0.95212977       2.19134190       1.66375914      -0.00105817      -0.00399400       0.00105655
Si       1.99528109       5.13875276       3.79266791       0.00105817      -0.00399400      -0.00105655
Si       2.19134190       0.95212977       5.61147693      -0.00399400      -0.00105817      -0.00105655
Si       3.70347981       4.94269195       1.97385890       0.00399400       0.00105817      -0.00105655
Si       3.89954063       0.75606895       0.15504988      -0.00105817       0.00399400      -0.00105655
Si       4.94269195       3.70347981       5.30137717       0.00105817       0.00399400       0.00105655
Si       5.13875276       1.99528109       3.48256815      -0.00399400       0.00105817       0.00105655
