12
Lattice="5.791517192122488 7.981921916485087e-63 2.422160123471692e-47 -6.590311432344491e-62 5.791517192122488 5.651135893749446e-17 -2.9026577834116017e-47 -8.883589784845386e-17 7.045541291122611" Properties=species:S:1:pos:R:3:forces:R:3 cutoff=-1.0 nneightol=1.2 n_minim_iter=5 energy=-1955.7645956127235 stress="0.03659555150091854 -9.83859710607261e-17 -9.310533180594658e-17 -9.83859710607261e-17 0.03659555150091823 -1.9639023127349593e-16 -9.310533180594658e-17 -1.9639023127349593e-16 0.03659064130901187" free_energy=-1955.7645956127235 pbc="T T T"
Si       0.46102826       0.46102826       0.00000000      -0.00185923      -0.00185923       0.00000000
Si      -0.46102827      -0.46102827       3.52277065       0.00185923       0.00185923       0.00000000
Si       2.43473033       3.35678686       5.28415597       0.00185923      -0.00185923      -0.00000000
Si       3.35678686       2.43473033       1.76138532      -0.00185923       0.00185923      -0.00000000
Si       0.73717057       3.84609834      -0.10036861       0.00381988      -0.00119334      -0.00010875
Si       0.95033975       2.15858802       1.66101671      -0.00119334      -0.00381988      -0.00010875
Si       1.94541884       5.05434662       3.62313926       0.00119334      -0.00381988       0.00010875
Si       2.15858802       0.95033975       5.38452458      -0.00381988      -0.00119334       0.00010875
Si       3.63292916       4.84117744       1.86175393       0.00381988       0.00119334       0.00010875
Si       3.84609834       0.73717057       0.10036861      -0.00119334       0.00381988       0.00010875
Si       4.84117744       3.63292916       5.18378736       0.00119334       0.00381988      -0.00010875
Si       5.05434662       1.94541884       3.42240204      -0.00381988       0.00119334      -0.00010875
