12
Lattice="5.751139476408043 1.2552723125390572e-63 2.3879001814371284e-47 -2.3096171218532156e-63 5.751139476408043 6.430232957011786e-17 -2.86688673092873e-47 -9.057410653179028e-17 6.97866094152145" Properties=species:S:1:pos:R:3:forces:R:3 cutoff=-1.0 nneightol=1.2 n_minim_iter=5 energy=-1955.9355557594806 stress="0.02550077362628976 -7.022004055767949e-16 -2.8878745799679794e-16 -7.022004055767949e-16 0.02550077362629029 5.1585494595231674e-17 -2.8878745799679794e-16 5.1585494595231674e-17 0.02548600705404982" free_energy=-1955.9355557594806 pbc="T T T"
Si       0.46117305       0.46117305       0.00000000      -0.00206408      -0.00206408      -0.00000000
Si      -0.46117305      -0.46117305       3.48933047       0.00206408       0.00206408       0.00000000
Si       2.41439669       3.33674278       5.23399571       0.00206408      -0.00206408       0.00000000
Si       3.33674278       2.41439669       1.74466524      -0.00206408       0.00206408      -0.00000000
Si       0.73261327       3.82124153      -0.08537060       0.00308715      -0.00108921      -0.00056437
Si       0.94567180       2.14295646       1.65929463      -0.00108921      -0.00308715      -0.00056437
Si       1.92989794       5.01852620       3.57470107       0.00108921      -0.00308715       0.00056437
Si       2.14295646       0.94567180       5.31936631      -0.00308715      -0.00108921       0.00056437
Si       3.60818301       4.80546768       1.83003584       0.00308715       0.00108921       0.00056437
Si       3.82124153       0.73261327       0.08537060      -0.00108921       0.00308715       0.00056437
Si       4.80546768       3.60818301       5.14862510       0.00108921       0.00308715      -0.00056437
Si       5.01852620       1.92989794       3.40395987      -0.00308715       0.00108921      -0.00056437
