12
Lattice="5.514899606131268 5.270532068027606e-61 2.297964115820128e-47 -5.270930136656862e-61 5.514899606131268 9.553275926230556e-18 -2.7858821624888465e-47 -1.1581686943236425e-17 6.685857422605837" Properties=species:S:1:pos:R:3:forces:R:3 cutoff=-1.0 nneightol=1.2 n_minim_iter=1 energy=-1955.698754837709 stress="-0.05016858743216732 -1.425459383613117e-16 1.2775751972197515e-16 -1.425459383613117e-16 -0.05016858743216724 1.465618876399201e-17 1.2775751972197515e-16 1.465618876399201e-17 -0.05059017085987191" free_energy=-1955.698754837709 pbc="T T T"
Si       0.44852006       0.44852006       0.00000000      -0.01205278      -0.01205278      -0.00000000
Si      -0.44852006      -0.44852006       3.34292871       0.01205278       0.01205278       0.00000000
Si       2.30892974       3.20596986       5.01439307       0.01205278      -0.01205278       0.00000000
Si       3.20596986       2.30892974       1.67146436      -0.01205278       0.01205278      -0.00000000
Si       0.71889075       3.66198699      -0.02111972       0.00321250      -0.01032632       0.11082617
Si       0.90453719       2.03855905       1.65034464      -0.01032632      -0.00321250       0.11082617
Si       1.85291261       4.79600885       3.36404843       0.01032632      -0.00321250      -0.11082617
Si       2.03855905       0.90453719       5.03551279      -0.00321250      -0.01032632      -0.11082617
Si       3.47634055       4.61036241       1.69258407       0.00321250       0.01032632      -0.11082617
Si       3.66198699       0.71889075       0.02111972      -0.01032632       0.00321250      -0.11082617
Si       4.61036241       3.47634055       4.99327335       0.01032632       0.00321250       0.11082617
Si       4.79600885       1.85291261       3.32180899      -0.00321250       0.01032632       0.11082617
12
Lattice="5.506949864883813 5.263004988509247e-61 2.295840122371842e-47 -5.263403977965137e-61 5.506949864883813 9.580877735139977e-18 -2.7923265650487417e-47 -1.1564991913229825e-17 6.705174540670824" Properties=species:S:1:pos:R:3:forces:R:3 cutoff=-1.0 nneightol=1.2 n_minim_iter=2 energy=-1955.7014548699817 stress="-0.050988551618124794 6.89209835914634e-16 -5.340807319963444e-17 6.89209835914634e-16 -0.05098855161812493 4.656197804066844e-16 -5.340807319963444e-17 4.656197804066844e-16 -0.04603435666254627" free_energy=-1955.7014548699817 pbc="T T T"
Si       0.44726595       0.44726595       0.00000000       0.04403758       0.04403758      -0.00000000
Si      -0.44726595      -0.44726595       3.35258727      -0.04403758      -0.04403758      -0.00000000
Si       2.30620898       3.20074088       5.02888091      -0.04403758       0.04403758       0.00000000
Si       3.20074088       2.30620898       1.67629364       0.04403758      -0.04403758      -0.00000000
Si       0.71801641       3.65618769      -0.01556988       0.02653605      -0.04603142       0.06602186
Si       0.90271276       2.03545852       1.66072376      -0.04603142      -0.02653605       0.06602186
Si       1.85076217       4.78893345       3.36815715       0.04603142      -0.02653605      -0.06602186
Si       2.03545852       0.90271276       5.04445079      -0.02653605      -0.04603142      -0.06602186
Si       3.47149134       4.60423710       1.69186352       0.02653605       0.04603142      -0.06602186
Si       3.65618769       0.71801641       0.01556988      -0.04603142       0.02653605      -0.06602186
Si       4.60423710       3.47149134       5.01331103       0.04603142       0.02653605       0.06602186
Si       4.78893345       1.85076217       3.33701739      -0.02653605       0.04603142       0.06602186
12
Lattice="5.51857161510175 5.273914674620558e-61 2.30639574409711e-47 -5.274504982066999e-61 5.51857161510175 4.828641354186904e-18 -2.7736289440726973e-47 -1.7225130162352875e-17 6.676962961397344" Properties=species:S:1:pos:R:3:forces:R:3 cutoff=-1.0 nneightol=1.2 n_minim_iter=3 energy=-1955.707567694349 stress="-0.04671750201953774 4.023691124535828e-16 -1.7058933563397314e-16 4.023691124535828e-16 -0.046717502019538115 7.688953977291024e-17 -1.7058933563397314e-16 7.688953977291024e-17 -0.047049308651578844" free_energy=-1955.707567694349 pbc="T T T"
Si       0.44751437       0.44751437       0.00000000       0.04568222       0.04568222      -0.00000000
Si      -0.44751438      -0.44751438       3.33848148      -0.04568222      -0.04568222       0.00000000
Si       2.31177143       3.20680018       5.00772222      -0.04568222       0.04568222       0.00000000
Si       3.20680018       2.31177143       1.66924074       0.04568222      -0.04568222       0.00000000
Si       0.72033742       3.66195013      -0.00149935       0.06027885       0.01469936       0.00332441
Si       0.90266432       2.03894838       1.66774139       0.01469936      -0.06027885       0.00332441
Si       1.85662148       4.79823419       3.33998083      -0.01469936      -0.06027885      -0.00332441
Si       2.03894838       0.90266432       5.00922157      -0.06027885       0.01469936      -0.00332441
Si       3.47962323       4.61590729       1.67074009       0.06027885      -0.01469936      -0.00332441
Si       3.66195013       0.72033742       0.00149935       0.01469936       0.06027885      -0.00332441
Si       4.61590729       3.47962323       5.00622287      -0.01469936       0.06027885       0.00332441
Si       4.79823419       1.85662148       3.33698213      -0.06027885      -0.01469936       0.00332441
12
Lattice="5.516020560939865 5.130365668157593e-61 2.304495181374785e-47 -5.130798677697888e-61 5.516020560939865 3.478007824963255e-18 -2.777227106634082e-47 -1.8856592233968194e-17 6.683140325223253" Properties=species:S:1:pos:R:3:forces:R:3 cutoff=-1.0 nneightol=1.2 n_minim_iter=4 energy=-1955.7103197734166 stress="-0.04564367784361451 7.552885170081662e-17 -3.540924115132852e-16 7.552885170081662e-17 -0.045643677843614644 -5.996411572881234e-17 -3.540924115132852e-16 -5.996411572881234e-17 -0.045564801361453695" free_energy=-1955.7103197734166 pbc="T T T"
Si       0.45219509       0.45219509       0.00000000      -0.01137061      -0.01137061      -0.00000000
Si      -0.45219509      -0.45219509       3.34157016       0.01137061       0.01137061       0.00000000
Si       2.30581519       3.21020537       5.01235524       0.01137061      -0.01137061       0.00000000
Si       3.21020537       2.30581519       1.67078508      -0.01137061       0.01137061       0.00000000
Si       0.72707839       3.66089668       0.00502565       0.00408592       0.02719251       0.00179973
Si       0.90288640       2.03093189       1.67581073       0.02719251      -0.00408592       0.00179973
Si       1.85512388       4.78894217       3.33654451      -0.02719251      -0.00408592      -0.00179973
Si       2.03093189       0.90288640       5.00732960      -0.00408592       0.02719251      -0.00179973
Si       3.48508867       4.61313416       1.66575943       0.00408592      -0.02719251      -0.00179973
Si       3.66089668       0.72707839      -0.00502565       0.02719251       0.00408592      -0.00179973
Si       4.61313416       3.48508867       5.01738089      -0.02719251       0.00408592       0.00179973
Si       4.78894217       1.85512388       3.34659581      -0.00408592      -0.02719251       0.00179973
12
Lattice="5.518004105723932 5.109981615667417e-61 2.307316003324827e-47 -5.115428837299347e-61 5.518004105723934 -2.6463909492897636e-18 -2.7728249604749193e-47 -2.6162632445705918e-17 6.678336441329217" Properties=species:S:1:pos:R:3:forces:R:3 cutoff=-1.0 nneightol=1.2 n_minim_iter=5 energy=-1955.7105655414803 stress="-0.045498789143745826 -1.9064562188784096e-16 -3.055149942435755e-16 -1.9064562188784096e-16 -0.045498789143744764 -1.1246364172043438e-16 -3.055149942435755e-16 -1.1246364172043438e-16 -0.045525141366050924" free_energy=-1955.7105655414803 pbc="T T T"
Si       0.45201029       0.45201029      -0.00000000       0.00287733       0.00287733       0.00000000
Si      -0.45201029      -0.45201029       3.33916822      -0.00287733      -0.00287733      -0.00000000
Si       2.30699176       3.21101234       5.00875233      -0.00287733       0.00287733       0.00000000
Si       3.21101234       2.30699176       1.66958411       0.00287733      -0.00287733       0.00000000
Si       0.72822381       3.66408956       0.00575084      -0.00238458       0.00187417       0.00026406
Si       0.90508751       2.03077824       1.67533495       0.00187417       0.00238458       0.00026406
Si       1.85391454       4.78978029       3.33341738      -0.00187417       0.00238458      -0.00026406
Si       2.03077824       0.90508751       5.00300149       0.00238458       0.00187417      -0.00026406
Si       3.48722586       4.61291659       1.66383327      -0.00238458      -0.00187417      -0.00026406
Si       3.66408956       0.72822381      -0.00575084       0.00187417      -0.00238458      -0.00026406
Si       4.61291659       3.48722586       5.01450317      -0.00187417      -0.00238458       0.00026406
Si       4.78978029       1.85391454       3.34491906       0.00238458      -0.00187417       0.00026406
