12
Lattice="5.1999972757614685 5.1575038760328264e-61 2.2324716525131397e-47 -5.156278032623901e-61 5.1999972757614685 -2.8553027223175896e-17 -2.705010200620276e-47 3.459673488365812e-17 6.300660372685127" Properties=species:S:1:pos:R:3:forces:R:3 cutoff=-1.0 nneightol=1.2 n_minim_iter=1 energy=-1952.1235688381535 stress="-0.21646291091523095 1.0226914487935753e-15 -3.6305342789908126e-16 1.0226914487935753e-15 -0.21646291091522984 1.5815672775608171e-15 -3.6305342789908126e-16 1.5815672775608171e-15 -0.2131818641896954" free_energy=-1952.1235688381535 pbc="T T T"
Si       0.45177155       0.45177155      -0.00000000       0.05076968       0.05076968      -0.00000000
Si      -0.45177156      -0.45177156       3.15033019      -0.05076968      -0.05076968       0.00000000
Si       2.14822708       3.05177019       4.72549528      -0.05076968       0.05076968       0.00000000
Si       3.05177019       2.14822708       1.57516509       0.05076968      -0.05076968       0.00000000
Si       0.75668884       3.44371121       0.18158311       0.06117656      -0.05798699       0.24172340
Si       0.84371257       1.84330979       1.75674821      -0.05798699      -0.06117656       0.24172340
Si       1.75628606       4.44330843       2.96874707       0.05798699      -0.06117656      -0.24172340
Si       1.84330979       0.84371257       4.54391217      -0.06117656      -0.05798699      -0.24172340
Si       3.35668748       4.35628470       1.39358198       0.06117656       0.05798699      -0.24172340
Si       3.44371121       0.75668884      -0.18158311      -0.05798699       0.06117656      -0.24172340
Si       4.35628470       3.35668748       4.90707839       0.05798699       0.06117656       0.24172340
Si       4.44330843       1.75628606       3.33191330      -0.06117656       0.05798699       0.24172340
12
Lattice="5.212965848059014 5.1703787493152955e-61 2.2587302822045665e-47 -5.219179017572163e-61 5.212965848059014 1.3606019938642156e-17 -2.6675943946368803e-47 8.262897120383328e-17 6.2693503913501365" Properties=species:S:1:pos:R:3:forces:R:3 cutoff=-1.0 nneightol=1.2 n_minim_iter=2 energy=-1952.1285786808423 stress="-0.2110633011617961 1.7939254302493747e-15 1.0031417914689665e-16 1.7939254302493747e-15 -0.21106330116179722 1.7154824302343837e-16 1.0031417914689665e-16 1.7154824302343837e-16 -0.21777029485736174" free_energy=-1952.1285786808423 pbc="T T T"
Si       0.45357863       0.45357863       0.00000000      -0.03667539      -0.03667539      -0.00000000
Si      -0.45357863      -0.45357863       3.13467520       0.03667539       0.03667539       0.00000000
Si       2.15290429       3.06006155       4.70201279       0.03667539      -0.03667539       0.00000000
Si       3.06006155       2.15290429       1.56733760      -0.03667539       0.03667539       0.00000000
Si       0.75939584       3.45152258       0.18389605       0.05059189       0.05849906       0.23188479
Si       0.84503965       1.84708708       1.75123365       0.05849906      -0.05059189       0.23188479
Si       1.76144327       4.45357001       2.95077914      -0.05849906      -0.05059189      -0.23188479
Si       1.84708708       0.84503965       4.51811674      -0.05059189       0.05849906      -0.23188479
Si       3.36587876       4.36792619       1.38344154       0.05059189      -0.05849906      -0.23188479
Si       3.45152258       0.75939584      -0.18389605       0.05849906       0.05059189      -0.23188479
Si       4.36792619       3.36587876       4.88590885      -0.05849906       0.05059189       0.23188479
Si       4.45357001       1.76144327       3.31857125      -0.05059189      -0.05849906       0.23188479
12
Lattice="5.199325660094864 5.1945253507232105e-61 2.2479382537587573e-47 -5.186623183175014e-61 5.199325660094864 1.5262209648453487e-17 -2.6878650483928464e-47 8.431860551062353e-17 6.302288235912007" Properties=species:S:1:pos:R:3:forces:R:3 cutoff=-1.0 nneightol=1.2 n_minim_iter=3 energy=-1952.1665453941685 stress="-0.1970712677490686 9.670563823239537e-16 7.090823625446442e-17 9.670563823239537e-16 -0.1970712677490693 -5.969162036447046e-16 7.090823625446442e-17 -5.969162036447046e-16 -0.1973487361741901" free_energy=-1952.1665453941685 pbc="T T T"
Si       0.45557843       0.45557843       0.00000000       0.13748637       0.13748637      -0.00000000
Si      -0.45557844      -0.45557844       3.15114412      -0.13748637      -0.13748637       0.00000000
Si       2.14408439       3.05524126       4.72671618      -0.13748637       0.13748637       0.00000000
Si       3.05524126       2.14408439       1.57557206       0.13748637      -0.13748637       0.00000000
Si       0.76677913       3.43982088       0.22366709       0.12845770      -0.01506863      -0.05413473
Si       0.84015805       1.83288370       1.79923915      -0.01506863      -0.12845770      -0.05413473
Si       1.75950478       4.43254653       2.92747703       0.01506863      -0.12845770       0.05413473
Si       1.83288370       0.84015805       4.50304909      -0.12845770      -0.01506863       0.05413473
Si       3.36644196       4.35916761       1.35190497       0.12845770       0.01506863       0.05413473
Si       3.43982088       0.76677913      -0.22366709      -0.01506863       0.12845770       0.05413473
Si       4.35916761       3.36644196       4.95038327       0.01506863       0.12845770      -0.05413473
Si       4.43254653       1.75950478       3.37481121      -0.12845770       0.01506863      -0.05413473
12
Lattice="5.176301458800261 5.171111011365843e-61 2.230552590381943e-47 -5.16367253152674e-61 5.176301458800261 5.991036904749125e-18 -2.7212857005457476e-47 7.241139596707662e-17 6.358478111309284" Properties=species:S:1:pos:R:3:forces:R:3 cutoff=-1.0 nneightol=1.2 n_minim_iter=4 energy=-1952.1814855420248 stress="-0.18955819810405383 6.613893443631502e-16 -5.022632794313917e-16 6.613893443631502e-16 -0.18955819810405208 -1.0667596346794528e-15 -5.022632794313917e-16 -1.0667596346794528e-15 -0.18942729669587863" free_energy=-1952.1814855420248 pbc="T T T"
Si       0.46871724       0.46871724       0.00000000       0.02604455       0.02604455      -0.00000000
Si      -0.46871724      -0.46871724       3.17923906      -0.02604455      -0.02604455      -0.00000000
Si       2.11943349       3.05686797       4.76885858      -0.02604455       0.02604455       0.00000000
Si       3.05686797       2.11943349       1.58961953       0.02604455      -0.02604455      -0.00000000
Si       0.78034986       3.42231583       0.23589479      -0.02012731      -0.03458986      -0.01037451
Si       0.83416510       1.80780086       1.82551432      -0.03458986       0.02012731      -0.01037451
Si       1.75398563       4.39595159       2.94334426       0.03458986       0.02012731       0.01037451
Si       1.80780086       0.83416510       4.53296379       0.02012731      -0.03458986       0.01037451
Si       3.36850059       4.34213636       1.35372473      -0.02012731       0.03458986       0.01037451
Si       3.42231583       0.78034986      -0.23589479      -0.03458986      -0.02012731       0.01037451
Si       4.34213636       3.36850059       5.00475338       0.03458986      -0.02012731      -0.01037451
Si       4.39595159       1.75398563       3.41513385       0.02012731       0.03458986      -0.01037451
12
Lattice="5.1706147718117474 7.308171265038955e-61 2.233879358026701e-47 -4.929124471995142e-61 5.170614771811747 -8.062976235335699e-18 -2.719817071849803e-47 5.432893321751924e-17 6.372472021183084" Properties=species:S:1:pos:R:3:forces:R:3 cutoff=-1.0 nneightol=1.2 n_minim_iter=5 energy=-1952.1821308904825 stress="-0.18922287777970964 1.0307964108927256e-15 1.4588931778488853e-15 1.0307964108927256e-15 -0.18922287777971106 -7.899690697252088e-16 1.4588931778488853e-15 -7.899690697252088e-16 -0.1885464711997393" free_energy=-1952.1821308904825 pbc="T T T"
Si       0.47024622       0.47024622      -0.00000000       0.01548230       0.01548230      -0.00000000
Si      -0.47024623      -0.47024623       3.18623601      -0.01548230      -0.01548230       0.00000000
Si       2.11506116       3.05555361       4.77935402      -0.01548230       0.01548230       0.00000000
Si       3.05555361       2.11506116       1.59311801       0.01548230      -0.01548230      -0.00000000
Si       0.77827558       3.41602576       0.23681504      -0.00030785      -0.00402868      -0.01214692
Si       0.83071838       1.80703180       1.82993305      -0.00402868       0.00030785      -0.01214692
Si       1.75458900       4.39233919       2.94942097       0.00402868       0.00030785       0.01214692
Si       1.80703180       0.83071838       4.54253897       0.00030785      -0.00402868       0.01214692
Si       3.36358296       4.33989639       1.35630296      -0.00030785       0.00402868       0.01214692
Si       3.41602576       0.77827558      -0.23681504      -0.00402868      -0.00030785       0.01214692
Si       4.33989639       3.36358296       5.01616906       0.00402868      -0.00030785      -0.01214692
Si       4.39233919       1.75458900       3.42305105       0.00030785       0.00402868      -0.01214692
12
Lattice="5.171217573869537 7.309063677865595e-61 2.234401110797577e-47 -4.9296311859269975e-61 5.171217573869536 -8.70178891221592e-18 -2.7188493120711106e-47 5.354631093142005e-17 6.370986446343979" Properties=species:S:1:pos:R:3:forces:R:3 cutoff=-1.0 nneightol=1.2 n_minim_iter=6 energy=-1952.1822342321025 stress="-0.18933453002178285 -1.2548436295232876e-15 2.0901841956226915e-16 -1.2548436295232876e-15 -0.1893345300217856 -2.899865836483547e-16 2.0901841956226915e-16 -2.899865836483547e-16 -0.18898125664094093" free_energy=-1952.1822342321025 pbc="T T T"
Si       0.47184585       0.47184585      -0.00000000       0.00571877       0.00571877      -0.00000000
Si      -0.47184586      -0.47184586       3.18549322      -0.00571877      -0.00571877      -0.00000000
Si       2.11376293       3.05745464       4.77823983      -0.00571877       0.00571877       0.00000000
Si       3.05745464       2.11376293       1.59274661       0.00571877      -0.00571877      -0.00000000
Si       0.77693774       3.41771824       0.23648336       0.00314996      -0.00647206      -0.00828314
Si       0.83210945       1.80867105       1.82922997      -0.00647206      -0.00314996      -0.00828314
Si       1.75349933       4.39427983       2.94900986       0.00647206      -0.00314996       0.00828314
Si       1.80867105       0.83210945       4.54175647      -0.00314996      -0.00647206       0.00828314
Si       3.36254652       4.33910812       1.35626325       0.00314996       0.00647206       0.00828314
Si       3.41771824       0.77693774      -0.23648336      -0.00647206       0.00314996       0.00828314
Si       4.33910812       3.36254652       5.01472320       0.00647206       0.00314996      -0.00828314
Si       4.39427983       1.75349933       3.42197659      -0.00314996       0.00647206      -0.00828314
12
Lattice="5.171605107482768 7.309605041896155e-61 2.234733627978785e-47 -4.930017264945561e-61 5.171605107482767 -8.465417730231756e-18 -2.7182308534831857e-47 5.383992848958148e-17 6.370031663896297" Properties=species:S:1:pos:R:3:forces:R:3 cutoff=-1.0 nneightol=1.2 n_minim_iter=7 energy=-1952.1822711958764 stress="-0.18983119182779704 -6.162214902527584e-16 -7.401174435474637e-16 -6.162214902527584e-16 -0.1898311918277975 -1.1306218486065148e-16 -7.401174435474637e-16 -1.1306218486065148e-16 -0.1899610549439651" free_energy=-1952.1822711958764 pbc="T T T"
Si       0.47132797       0.47132797      -0.00000000      -0.00209362      -0.00209362      -0.00000000
Si      -0.47132798      -0.47132798       3.18501583       0.00209362       0.00209362       0.00000000
Si       2.11447458       3.05713053       4.77752375       0.00209362      -0.00209362       0.00000000
Si       3.05713053       2.11447458       1.59250792      -0.00209362       0.00209362      -0.00000000
Si       0.77704930       3.41742450       0.23492247      -0.00124008       0.00225097       0.00297669
Si       0.83162195       1.80875325       1.82743039       0.00225097       0.00124008       0.00297669
Si       1.75418060       4.39455580       2.95009336      -0.00225097       0.00124008      -0.00297669
Si       1.80875325       0.83162195       4.54260128       0.00124008       0.00225097      -0.00297669
Si       3.36285185       4.33998315       1.35758544      -0.00124008      -0.00225097      -0.00297669
Si       3.41742450       0.77704930      -0.23492247       0.00225097      -0.00124008      -0.00297669
Si       4.33998315       3.36285185       5.01244622      -0.00225097      -0.00124008       0.00297669
Si       4.39455580       1.75418060       3.41993830       0.00124008      -0.00225097       0.00297669
