12
Lattice="5.966301894328062 -5.925399294036389e-62 2.56085399970485e-47 5.832466970893871e-62 5.966301894328062 2.1651460632797244e-16 -3.1808338946315974e-47 -2.6893255084835255e-16 7.4107369234133165" Properties=species:S:1:pos:R:3:forces:R:3 cutoff=-1.0 nneightol=1.2 n_minim_iter=1 energy=-1954.163368099322 stress="0.07853063804798288 8.592470935602352e-17 6.150748838785306e-17 8.592470935602352e-17 0.07853063804798285 4.7763268796420854e-17 6.150748838785306e-17 4.7763268796420854e-17 0.07674225018119019" free_energy=-1954.163368099322 pbc="T T T"
Si       0.44631299       0.44631299       0.00000000      -0.00612969      -0.00612969      -0.00000000
Si      -0.44631300      -0.44631300       3.70536846       0.00612969       0.00612969       0.00000000
Si       2.53683795       3.42946394       5.55805269       0.00612969      -0.00612969       0.00000000
Si       3.42946394       2.53683795       1.85268423      -0.00612969       0.00612969       0.00000000
Si       0.76903192       3.93939267      -0.17840568       0.02979837      -0.00931975      -0.06343224
Si       0.95624172       2.21411902       1.67427855      -0.00931975      -0.02979837      -0.06343224
Si       2.02690922       5.19726997       3.88377414       0.00931975      -0.02979837       0.06343224
Si       2.21411902       0.95624172       5.73645837      -0.02979837      -0.00931975       0.06343224
Si       3.75218287       5.01006017       2.03108991       0.02979837       0.00931975       0.06343224
Si       3.93939267       0.76903192       0.17840568      -0.00931975       0.02979837       0.06343224
Si       5.01006017       3.75218287       5.37964702       0.00931975       0.02979837      -0.06343224
Si       5.19726997       2.02690922       3.52696279      -0.02979837       0.00931975      -0.06343224
12
Lattice="5.95837119066237 -5.917522960130695e-62 2.5752479817620227e-47 5.825037290469966e-62 5.95837119066237 2.170913599010557e-16 -3.1655460971679525e-47 -2.6857507239610334e-16 7.4304777116781295" Properties=species:S:1:pos:R:3:forces:R:3 cutoff=-1.0 nneightol=1.2 n_minim_iter=2 energy=-1954.1641707262754 stress="0.07747727425724502 2.334362551611755e-16 8.055213406954709e-17 2.334362551611755e-16 0.07747727425724528 2.455997683839864e-16 8.055213406954709e-17 2.455997683839864e-16 0.07799572258537868" free_energy=-1954.1641707262754 pbc="T T T"
Si       0.44566795       0.44566795       0.00000000      -0.00234475      -0.00234475      -0.00000000
Si      -0.44566796      -0.44566796       3.71523886       0.00234475       0.00234475       0.00000000
Si       2.53351764       3.42485355       5.57285828       0.00234475      -0.00234475       0.00000000
Si       3.42485355       2.53351764       1.85761943      -0.00234475       0.00234475      -0.00000000
Si       0.76826139       3.93407751      -0.17941887       0.03274021      -0.01552668      -0.06878412
Si       0.95489191       2.21092420       1.67820055      -0.01552668      -0.03274021      -0.06878412
Si       2.02429368       5.19010979       3.89465773       0.01552668      -0.03274021       0.06878412
Si       2.21092420       0.95489191       5.75227716      -0.03274021      -0.01552668       0.06878412
Si       3.74744699       5.00347927       2.03703830       0.03274021       0.01552668       0.06878412
Si       3.93407751       0.76826139       0.17941887      -0.01552668       0.03274021       0.06878412
Si       5.00347927       3.74744699       5.39343941       0.01552668       0.03274021      -0.06878412
Si       5.19010979       2.02429368       3.53581998      -0.03274021       0.01552668      -0.06878412
12
Lattice="5.95403106970446 -5.831689333671168e-62 2.5715181745109467e-47 6.065822117040362e-62 5.95403106970446 2.1762347289391985e-16 -3.1725744271927174e-47 -2.681091769427701e-16 7.441314378633161" Properties=species:S:1:pos:R:3:forces:R:3 cutoff=-1.0 nneightol=1.2 n_minim_iter=3 energy=-1954.1690216859984 stress="0.07590566543152064 1.3095904638482147e-16 -1.0651240944763352e-16 1.3095904638482147e-16 0.07590566543152025 -2.6224328753129098e-17 -1.0651240944763352e-16 -2.6224328753129098e-17 0.0758779073078629" free_energy=-1954.1690216859984 pbc="T T T"
Si       0.44467825       0.44467825       0.00000000      -0.04473704      -0.04473704       0.00000000
Si      -0.44467825      -0.44467825       3.72065719       0.04473704       0.04473704       0.00000000
Si       2.53233728       3.42169378       5.58098578       0.04473704      -0.04473704       0.00000000
Si       3.42169378       2.53233728       1.86032859      -0.04473704       0.04473704      -0.00000000
Si       0.77422996       3.92835389      -0.19356455      -0.01906739       0.00083897      -0.00780770
Si       0.95133835       2.20278557       1.66676405       0.00083897       0.01906739      -0.00780770
Si       2.02567718       5.17980110       3.91422173      -0.00083897       0.01906739       0.00780770
Si       2.20278557       0.95133835       5.77455033       0.01906739       0.00083897       0.00780770
Si       3.75124550       5.00269271       2.05389314      -0.01906739      -0.00083897       0.00780770
Si       3.92835389       0.77422996       0.19356455       0.00083897      -0.01906739       0.00780770
Si       5.00269271       3.75124550       5.38742124      -0.00083897      -0.01906739      -0.00780770
Si       5.17980110       2.02567718       3.52709264       0.01906739      -0.00083897      -0.00780770
12
Lattice="5.953771198097375 -5.8723021020409055e-62 2.571286974154154e-47 6.7185743113155805e-62 5.953771198097375 2.1822785518955503e-16 -3.1730054735829734e-47 -2.6736548176075274e-16 7.441963993294264" Properties=species:S:1:pos:R:3:forces:R:3 cutoff=-1.0 nneightol=1.2 n_minim_iter=4 energy=-1954.1705479303282 stress="0.07534945095507974 1.7231342762815714e-16 2.526522608029762e-17 1.7231342762815714e-16 0.07534945095507942 2.3439401888363718e-17 2.526522608029762e-17 2.3439401888363718e-17 0.075313596948543" free_energy=-1954.1705479303282 pbc="T T T"
Si       0.43750069       0.43750069       0.00000000       0.00279339       0.00279339      -0.00000000
Si      -0.43750070      -0.43750070       3.72098200      -0.00279339      -0.00279339       0.00000000
Si       2.53938490       3.41438629       5.58147299      -0.00279339       0.00279339      -0.00000000
Si       3.41438629       2.53938490       1.86049100       0.00279339      -0.00279339      -0.00000000
Si       0.77328773       3.92739829      -0.19918705      -0.00715337      -0.02620185       0.00120406
Si       0.95051269       2.20359786       1.66130394      -0.02620185       0.00715337       0.00120406
Si       2.02637290       5.18048346       3.92016905       0.02620185       0.00715337      -0.00120406
Si       2.20359786       0.95051269       5.78066005       0.00715337      -0.02620185      -0.00120406
Si       3.75017333       5.00325850       2.05967805      -0.00715337       0.02620185      -0.00120406
Si       3.92739829       0.77328773       0.19918705      -0.02620185      -0.00715337      -0.00120406
Si       5.00325850       3.75017333       5.38228594       0.02620185      -0.00715337       0.00120406
Si       5.18048346       2.02637290       3.52179494       0.00715337       0.02620185       0.00120406
12
Lattice="5.952795429707976 -5.872631078348267e-62 2.5704636895426173e-47 6.725241241395344e-62 5.952795429707975 2.1491694319916316e-16 -3.174568074063506e-47 -2.715606271844151e-16 7.444403932129869" Properties=species:S:1:pos:R:3:forces:R:3 cutoff=-1.0 nneightol=1.2 n_minim_iter=5 energy=-1954.1710271856482 stress="0.07516844644662976 -1.2634258632630364e-17 1.1416734043046345e-16 -1.2634258632630364e-17 0.07516844644662984 1.4352571852741557e-17 1.1416734043046345e-16 1.4352571852741557e-17 0.07514974457996378" free_energy=-1954.1710271856482 pbc="T T T"
Si       0.43557386       0.43557386       0.00000000      -0.00138901      -0.00138901       0.00000000
Si      -0.43557386      -0.43557386       3.72220197       0.00138901       0.00138901      -0.00000000
Si       2.54082385       3.41197157       5.58330295       0.00138901      -0.00138901       0.00000000
Si       3.41197157       2.54082385       1.86110098      -0.00138901       0.00138901      -0.00000000
Si       0.77167696       3.92234364      -0.20075876       0.00364623      -0.00109868       0.00135524
Si       0.94594593       2.20472075       1.66034222      -0.00109868      -0.00364623       0.00135524
Si       2.03045178       5.18111847       3.92296073       0.00109868      -0.00364623      -0.00135524
Si       2.20472075       0.94594593       5.78406171      -0.00364623      -0.00109868      -0.00135524
Si       3.74807467       5.00684950       2.06185975       0.00364623       0.00109868      -0.00135524
Si       3.92234364       0.77167696       0.20075876      -0.00109868       0.00364623      -0.00135524
Si       5.00684950       3.74807467       5.38254419       0.00109868       0.00364623       0.00135524
Si       5.18111847       2.03045178       3.52144320      -0.00364623       0.00109868       0.00135524
