12
Lattice="5.422205146069518 5.0260949397560536e-61 2.2744489479105016e-47 -5.026157650423332e-61 5.422205146069518 1.4949999345556696e-18 -2.744397478465781e-47 -1.8038980626363716e-18 6.542545676511227" Properties=species:S:1:pos:R:3:forces:R:3 cutoff=-1.0 nneightol=1.2 n_minim_iter=1 energy=-1955.0145089589457 stress="-0.08726158543113462 4.972882261974313e-16 4.2381497017167065e-16 4.972882261974313e-16 -0.08726158543113344 5.852969579074339e-17 4.2381497017167065e-16 5.852969579074339e-17 -0.08640851579173456" free_energy=-1955.0145089589457 pbc="T T T"
Si       0.44854607       0.44854607       0.00000000      -0.00252862      -0.00252862       0.00000000
Si      -0.44854607      -0.44854607       3.27127284       0.00252862       0.00252862       0.00000000
Si       2.26255650       3.15964864       4.90690926       0.00252862      -0.00252862       0.00000000
Si       3.15964864       2.26255650       1.63563642      -0.00252862       0.00252862       0.00000000
Si       0.72691109       3.60126241       0.03997923       0.01259865      -0.01604226       0.15143299
Si       0.89015984       1.98419147       1.67561565      -0.01604226      -0.01259865       0.15143299
Si       1.82094273       4.69529405       3.23129361       0.01604226      -0.01259865      -0.15143299
Si       1.98419147       0.89015984       4.86693003      -0.01259865      -0.01604226      -0.15143299
Si       3.43801367       4.53204530       1.59565719       0.01259865       0.01604226      -0.15143299
Si       3.60126241       0.72691109      -0.03997923      -0.01604226       0.01259865      -0.15143299
Si       4.53204530       3.43801367       4.94688849       0.01604226       0.01259865       0.15143299
Si       4.69529405       1.82094273       3.31125207      -0.01259865       0.01604226       0.15143299
12
Lattice="5.435963497725083 5.0388481978443315e-61 2.293033013700834e-47 -5.0432772592949025e-61 5.435963497725083 1.4874418612778838e-18 -2.715448367362948e-47 -1.8084752896546913e-18 6.50946939436133" Properties=species:S:1:pos:R:3:forces:R:3 cutoff=-1.0 nneightol=1.2 n_minim_iter=2 energy=-1955.0192472040003 stress="-0.08269331284254469 -3.0117541691521897e-16 -2.904885618286194e-16 -3.0117541691521897e-16 -0.08269331284254527 -2.8588464662042613e-16 -2.904885618286194e-16 -2.8588464662042613e-16 -0.08990551420556403" free_energy=-1955.0192472040003 pbc="T T T"
Si       0.44956676       0.44956676       0.00000000      -0.04672245      -0.04672245      -0.00000000
Si      -0.44956676      -0.44956676       3.25473470       0.04672245       0.04672245      -0.00000000
Si       2.26841498       3.16754851       4.88210205       0.04672245      -0.04672245      -0.00000000
Si       3.16754851       2.26841498       1.62736735      -0.04672245       0.04672245      -0.00000000
Si       0.72934076       3.60965514       0.04675779       0.02683490       0.06262718       0.13018646
Si       0.89167339       1.98864098       1.67412514       0.06262718      -0.02683490       0.13018646
Si       1.82630835       4.70662273       3.20797691      -0.06262718      -0.02683490      -0.13018646
Si       1.98864098       0.89167339       4.83534426      -0.02683490       0.06262718      -0.13018646
Si       3.44732251       4.54429010       1.58060956       0.02683490      -0.06262718      -0.13018646
Si       3.60965514       0.72934076      -0.04675779       0.06262718       0.02683490      -0.13018646
Si       4.54429010       3.44732251       4.92885983      -0.06262718       0.02683490       0.13018646
Si       4.70662273       1.82630835       3.30149248      -0.02683490      -0.06262718       0.13018646
12
Lattice="5.429031240293329 5.041335215600187e-61 2.28778437361804e-47 -5.0049302969845854e-61 5.42903124029333 -1.3078820373068543e-18 -2.725286668045804e-47 -5.180397218248508e-18 6.526103716598457" Properties=species:S:1:pos:R:3:forces:R:3 cutoff=-1.0 nneightol=1.2 n_minim_iter=3 energy=-1955.0330963412273 stress="-0.07993501181742076 2.1432330053420975e-16 -5.771487945565981e-16 2.1432330053420975e-16 -0.0799350118174209 -7.176335921190494e-16 -5.771487945565981e-16 -7.176335921190494e-16 -0.07995530322643701" free_energy=-1955.0330963412273 pbc="T T T"
Si       0.44776997       0.44776997      -0.00000000       0.07110940       0.07110940      -0.00000000
Si      -0.44776997      -0.44776997       3.26305186      -0.07110940      -0.07110940       0.00000000
Si       2.26674565       3.16228559       4.89457779      -0.07110940       0.07110940      -0.00000000
Si       3.16228559       2.26674565       1.63152593       0.07110940      -0.07110940      -0.00000000
Si       0.73062466       3.60405718       0.06975825       0.08995611       0.01105590      -0.00449010
Si       0.88954156       1.98389095       1.70128418       0.01105590      -0.08995611      -0.00449010
Si       1.82497406       4.69840657       3.19329361      -0.01105590      -0.08995611       0.00449010
Si       1.98389095       0.88954156       4.82481954      -0.08995611       0.01105590       0.00449010
Si       3.44514028       4.53948968       1.56176768       0.08995611      -0.01105590       0.00449010
Si       3.60405718       0.73062466      -0.06975825       0.01105590       0.08995611       0.00449010
Si       4.53948968       3.44514028       4.96433603      -0.01105590       0.08995611      -0.00449010
Si       4.69840657       1.82497406       3.33281011      -0.08995611      -0.01105590      -0.00449010
12
Lattice="5.425239834006673 5.037419171184653e-61 2.2849712716053036e-47 -5.000803295854282e-61 5.425239834006673 -2.8199979769478733e-18 -2.7306088974007196e-47 -7.00279660091887e-18 6.535228384714805" Properties=species:S:1:pos:R:3:forces:R:3 cutoff=-1.0 nneightol=1.2 n_minim_iter=4 energy=-1955.0382769837681 stress="-0.07776267856924939 -1.4162337600522187e-16 -1.1647319277926866e-16 -1.4162337600522187e-16 -0.0777626785692499 4.6769645973928563e-17 -1.1647319277926866e-16 4.6769645973928563e-17 -0.07782937897440681" free_energy=-1955.0382769837681 pbc="T T T"
Si       0.45393641       0.45393641      -0.00000000      -0.00697005      -0.00697005      -0.00000000
Si      -0.45393642      -0.45393642       3.26761419       0.00697005       0.00697005      -0.00000000
Si       2.25868350       3.16655633       4.90142129       0.00697005      -0.00697005       0.00000000
Si       3.16655633       2.25868350       1.63380710      -0.00697005       0.00697005       0.00000000
Si       0.73973188       3.60226197       0.07799986       0.00572869       0.02206805      -0.00335526
Si       0.88964205       1.97288803       1.71180695       0.02206805      -0.00572869      -0.00335526
Si       1.82297786       4.68550795       3.18961434      -0.02206805      -0.00572869       0.00335526
Si       1.97288803       0.88964205       4.82342143      -0.00572869       0.02206805       0.00335526
Si       3.45235179       4.53559778       1.55580724       0.00572869      -0.02206805       0.00335526
Si       3.60226197       0.73973188      -0.07799986       0.02206805       0.00572869       0.00335526
Si       4.53559778       3.45235179       4.97942115      -0.02206805       0.00572869      -0.00335526
Si       4.68550795       1.82297786       3.34561405      -0.00572869      -0.02206805      -0.00335526
12
Lattice="5.427078664654577 5.03929898693506e-61 2.2873857651722193e-47 -4.997454126538758e-61 5.427078664654577 -1.2580606693636161e-17 -2.726777676451253e-47 -1.8603850224556698e-17 6.530800535727799" Properties=species:S:1:pos:R:3:forces:R:3 cutoff=-1.0 nneightol=1.2 n_minim_iter=5 energy=-1955.0384211934413 stress="-0.07769896016166992 3.5129541450490517e-16 -6.955474249400768e-17 3.5129541450490517e-16 -0.0776989601616715 -7.148559116408444e-16 -6.955474249400768e-17 -7.148559116408444e-16 -0.07787479699263354" free_energy=-1955.0384211934413 pbc="T T T"
Si       0.45371550       0.45371550      -0.00000000       0.00223667       0.00223667      -0.00000000
Si      -0.45371550      -0.45371550       3.26540027      -0.00223667      -0.00223667       0.00000000
Si       2.25982383       3.16725483       4.89810040      -0.00223667       0.00223667      -0.00000000
Si       3.16725483       2.25982383       1.63270013       0.00223667      -0.00223667       0.00000000
Si       0.74051426       3.60493817       0.07814192       0.00026393       0.00288611      -0.00306530
Si       0.89139884       1.97302507       1.71084206       0.00288611      -0.00026393      -0.00306530
Si       1.82214049       4.68656440       3.18725835      -0.00288611      -0.00026393       0.00306530
Si       1.97302507       0.89139884       4.81995848      -0.00026393       0.00288611       0.00306530
Si       3.45405359       4.53567982       1.55455821       0.00026393      -0.00288611       0.00306530
Si       3.60493817       0.74051426      -0.07814192       0.00288611       0.00026393       0.00306530
Si       4.53567982       3.45405359       4.97624232      -0.00288611       0.00026393      -0.00306530
Si       4.68656440       1.82214049       3.34354219      -0.00026393      -0.00288611      -0.00306530
