12
Lattice="4.654162633500208 -1.2164555654811374e-59 1.5109910155769015e-47 1.2248101337980134e-59 4.654162633500209 -2.2209944895276215e-16 -3.9432594218441013e-47 -2.853698580979218e-16 7.611473738115312" Properties=species:S:1:pos:R:3:forces:R:3 cutoff=-1.0 nneightol=1.2 n_minim_iter=15 energy=-1953.4321491807937 stress="-0.0949215054863022 -7.541823359007488e-17 -2.1009365071520862e-16 -7.541823359007488e-17 -0.09492150548630002 -4.646301890817114e-16 -2.1009365071520862e-16 -4.646301890817114e-16 -0.0949715330417506" free_energy=-1953.4321491807937 pbc="T T T"
Si       1.16424678       1.16424678      -0.00000000      -0.00190322      -0.00190322      -0.00000000
Si      -1.16424678      -1.16424678       3.80573687       0.00190322       0.00190322       0.00000000
Si       1.16283453       3.49132810       5.70860530       0.00190322      -0.00190322       0.00000000
Si       3.49132810       1.16283453       1.90286843      -0.00190322       0.00190322      -0.00000000
Si       1.16257848       3.49123487       0.63422555       0.00162537      -0.00032489       0.00051516
Si       1.16415355       1.16450283       2.53709398      -0.00032489      -0.00162537       0.00051516
Si       1.16292776       3.49158414       3.17151132       0.00032489      -0.00162537      -0.00051516
Si       1.16450283       1.16415355       5.07437976      -0.00162537      -0.00032489      -0.00051516
Si       3.48965980       3.49000907       1.26864289       0.00162537       0.00032489      -0.00051516
Si       3.49123487       1.16257848      -0.63422555      -0.00032489       0.00162537      -0.00051516
Si       3.49000907       3.48965980       6.34283085       0.00032489       0.00162537       0.00051516
Si       3.49158414       1.16292776       4.43996242      -0.00162537       0.00032489       0.00051516
