12
Lattice="5.894821722346199 -3.5042396725743654e-62 2.514732588522391e-47 -5.4581458920449935e-62 5.894821722346199 1.2284858835384063e-16 -3.0631131535356986e-47 2.72577275135004e-17 7.27523606738741" Properties=species:S:1:pos:R:3:forces:R:3 cutoff=-1.0 nneightol=1.2 n_minim_iter=5 energy=-1954.932098038365 stress="0.06275918166816692 -8.109516381310209e-17 -2.3977908154710607e-17 -8.109516381310209e-17 0.06275918166816664 5.98765806640686e-17 -2.3977908154710607e-17 5.98765806640686e-17 0.0627400022287358" free_energy=-1954.932098038365 pbc="T T T"
Si       0.44985177       0.44985177       0.00000000      -0.00145009      -0.00145009      -0.00000000
Si      -0.44985177      -0.44985177       3.63761803       0.00145009       0.00145009      -0.00000000
Si       2.49755909       3.39726263       5.45642705       0.00145009      -0.00145009      -0.00000000
Si       3.39726263       2.49755909       1.81880902      -0.00145009       0.00145009      -0.00000000
Si       0.75606895       3.89954063      -0.15504988       0.00399400      -0.00105817       0.00105655
Si       0.95212977       2.19134190       1.66375914      -0.00105817      -0.00399400       0.00105655
Si       1.99528109       5.13875276       3.79266791       0.00105817      -0.00399400      -0.00105655
Si       2.19134190       0.95212977       5.61147693      -0.00399400      -0.00105817      -0.00105655
Si       3.70347981       4.94269195       1.97385890       0.00399400       0.00105817      -0.00105655
Si       3.89954063       0.75606895       0.15504988      -0.00105817       0.00399400      -0.00105655
Si       4.94269195       3.70347981       5.30137717       0.00105817       0.00399400       0.00105655
Si       5.13875276       1.99528109       3.48256815      -0.00399400       0.00105817       0.00105655
