12
Lattice="5.374891983605975 4.9908411875940485e-61 2.2653903089169796e-47 -4.949398706547293e-61 5.374891983605975 -1.245963182861447e-17 -2.700557036271816e-47 -1.8424955968929267e-17 6.468000487007342" Properties=species:S:1:pos:R:3:forces:R:3 cutoff=-1.0 nneightol=1.2 n_minim_iter=5 energy=-1955.0384211934413 stress="-0.07769896016166992 3.5129541450490517e-16 -6.955474249400768e-17 3.5129541450490517e-16 -0.0776989601616715 -7.148559116408444e-16 -6.955474249400768e-17 -7.148559116408444e-16 -0.07787479699263354" free_energy=-1955.0384211934413 pbc="T T T"
Si       0.44935258       0.44935258      -0.00000000       0.00223667       0.00223667      -0.00000000
Si      -0.44935258      -0.44935258       3.23400024      -0.00223667      -0.00223667       0.00000000
Si       2.23809341       3.13679857       4.85100037      -0.00223667       0.00223667      -0.00000000
Si       3.13679857       2.23809341       1.61700012       0.00223667      -0.00223667       0.00000000
Si       0.73339349       3.57027316       0.07739051       0.00026393       0.00288611      -0.00306530
Si       0.88282717       1.95405250       1.69439063       0.00288611      -0.00026393      -0.00306530
Si       1.80461882       4.64149849       3.15660973      -0.00288611      -0.00026393       0.00306530
Si       1.95405250       0.88282717       4.77360985      -0.00026393       0.00288611       0.00306530
Si       3.42083948       4.49206481       1.53960961       0.00026393      -0.00288611       0.00306530
Si       3.57027316       0.73339349      -0.07739051       0.00288611       0.00026393       0.00306530
Si       4.49206481       3.42083948       4.92839088      -0.00288611       0.00026393      -0.00306530
Si       4.64149849       1.80461882       3.31139075      -0.00026393      -0.00288611      -0.00306530
