12
Lattice="5.66077045667551 1.7095192163113316e-63 2.319889942113083e-47 -1.700204811638997e-63 5.66077045667551 -2.2728106981939483e-18 -2.8114563684642505e-47 2.754401403167763e-18 6.860243178751137" Properties=species:S:1:pos:R:3:forces:R:3 cutoff=-1.0 nneightol=1.2 n_minim_iter=1 energy=-1956.079892241352 stress="-3.840144269905709e-05 3.5735017174858824e-17 4.2127233286704777e-16 3.5735017174858824e-17 -3.84014426993399e-05 1.449601999563115e-16 4.2127233286704777e-16 1.449601999563115e-16 7.678061863326408e-05" free_energy=-1956.079892241352 pbc="T T T"
Si       0.45744541       0.45744541      -0.00000000      -0.00226212      -0.00226212       0.00000000
Si      -0.45744542      -0.45744542       3.43012159       0.00226212       0.00226212       0.00000000
Si       2.37293981       3.28783064       5.14518238       0.00226212      -0.00226212      -0.00000000
Si       3.28783064       2.37293981       1.71506079      -0.00226212       0.00226212      -0.00000000
Si       0.72703103       3.76100900      -0.05651214      -0.00220875       0.00005090       0.00192650
Si       0.93062378       2.10335420       1.65854865       0.00005090       0.00220875       0.00192650
Si       1.89976145       4.93373943       3.48663373      -0.00005090       0.00220875      -0.00192650
Si       2.10335420       0.93062378       5.20169453       0.00220875       0.00005090      -0.00192650
Si       3.55741625       4.73014668       1.77157294      -0.00220875      -0.00005090      -0.00192650
Si       3.76100900       0.72703103       0.05651214       0.00005090      -0.00220875      -0.00192650
Si       4.73014668       3.55741625       5.08867024      -0.00005090      -0.00220875       0.00192650
Si       4.93373943       1.89976145       3.37360945       0.00220875      -0.00005090       0.00192650
