12
Lattice="5.6131987079301435 1.6951528293934808e-63 2.300394146922702e-47 -1.6859167007300705e-63 5.6131987079301435 -2.25371054560734e-18 -2.7878295676616467e-47 2.731254078523841e-18 6.802591350730658" Properties=species:S:1:pos:R:3:forces:R:3 cutoff=-1.0 nneightol=1.2 n_minim_iter=1 energy=-1956.0357684633177 stress="-0.01604388889226138 4.2627521301447297e-16 -2.891474730895795e-16 4.2627521301447297e-16 -0.0160438888922614 -4.198570876671059e-16 -2.891474730895795e-16 -4.198570876671059e-16 -0.017012634050852536" free_energy=-1956.0357684633177 pbc="T T T"
Si       0.45360115       0.45360115      -0.00000000      -0.01877323      -0.01877323      -0.00000000
Si      -0.45360116      -0.45360116       3.40129568       0.01877323       0.01877323      -0.00000000
Si       2.35299820       3.26020051       5.10194351       0.01877323      -0.01877323       0.00000000
Si       3.26020051       2.35299820       1.70064784      -0.01877323       0.01877323      -0.00000000
Si       0.72092123       3.72940239      -0.05603723      -0.00427803      -0.00930816       0.08028799
Si       0.92280304       2.08567812       1.64461061      -0.00930816       0.00427803       0.08028799
Si       1.88379631       4.89227747       3.45733291       0.00930816       0.00427803      -0.08028799
Si       2.08567812       0.92280304       5.15798074       0.00427803      -0.00930816      -0.08028799
Si       3.52752059       4.69039567       1.75668507      -0.00427803       0.00930816      -0.08028799
Si       3.72940239       0.72092123       0.05603723      -0.00930816      -0.00427803      -0.08028799
Si       4.69039567       3.52752059       5.04590628       0.00930816      -0.00427803       0.08028799
Si       4.89227747       1.88379631       3.34525845       0.00427803       0.00930816       0.08028799
12
Lattice="5.608734077853369 1.6938045375013478e-63 2.315341514970734e-47 -1.6846256547567432e-63 5.608734077853369 -2.2572999433173233e-18 -2.7705504812712144e-47 2.729081691664697e-18 6.813425575143054" Properties=species:S:1:pos:R:3:forces:R:3 cutoff=-1.0 nneightol=1.2 n_minim_iter=2 energy=-1956.0362687938784 stress="-0.016666678567285296 4.419927406621235e-16 1.4911215241936237e-16 4.419927406621235e-16 -0.016666678567285792 1.6581910733525457e-16 1.4911215241936237e-16 1.6581910733525457e-16 -0.015212675959731414" free_energy=-1956.0362687938784 pbc="T T T"
Si       0.45302471       0.45302471      -0.00000000      -0.00111392      -0.00111392      -0.00000000
Si      -0.45302472      -0.45302472       3.40671279       0.00111392       0.00111392       0.00000000
Si       2.35134232       3.25739175       5.11006918       0.00111392      -0.00111392       0.00000000
Si       3.25739175       2.35134232       1.70335639      -0.00111392       0.00111392       0.00000000
Si       0.72029868       3.72632917      -0.05520198       0.00248270      -0.02397606       0.06873728
Si       0.92196213       2.08406835       1.64815441      -0.02397606      -0.00248270       0.06873728
Si       1.88240490       4.88843539       3.46191477       0.02397606      -0.00248270      -0.06873728
Si       2.08406835       0.92196213       5.16527116      -0.00248270      -0.02397606      -0.06873728
Si       3.52466572       4.68677194       1.75855837       0.00248270       0.02397606      -0.06873728
Si       3.72632917       0.72029868       0.05520198      -0.02397606       0.00248270      -0.06873728
Si       4.68677194       3.52466572       5.05486720       0.02397606       0.00248270       0.06873728
Si       4.88843539       1.88240490       3.35151081      -0.00248270       0.02397606       0.06873728
12
Lattice="5.613671717308251 1.734635955881557e-63 2.3195785104735044e-47 -1.6049389712327238e-63 5.613671717308252 -1.2373865310693635e-17 -2.7629014446045075e-47 -9.472443607916457e-18 6.80144502294209" Properties=species:S:1:pos:R:3:forces:R:3 cutoff=-1.0 nneightol=1.2 n_minim_iter=3 energy=-1956.0395908722107 stress="-0.01491577864339861 6.848293521657851e-17 -7.097572538932638e-17 6.848293521657851e-17 -0.014915778643398395 4.7168769892125456e-17 -7.097572538932638e-17 4.7168769892125456e-17 -0.01508419285389007" free_energy=-1956.0395908722107 pbc="T T T"
Si       0.45190840       0.45190840      -0.00000000       0.02839469       0.02839469      -0.00000000
Si      -0.45190841      -0.45190841       3.40072251      -0.02839469      -0.02839469       0.00000000
Si       2.35492745       3.25874426       5.10108377      -0.02839469       0.02839469      -0.00000000
Si       3.25874426       2.35492745       1.70036126       0.02839469      -0.02839469      -0.00000000
Si       0.72075126       3.72745695      -0.04479034       0.03373078       0.00170269       0.00605475
Si       0.92062109       2.08608460       1.65557092       0.00170269      -0.03373078       0.00605475
Si       1.88621476       4.89292046       3.44551285      -0.00170269      -0.03373078      -0.00605475
Si       2.08608460       0.92062109       5.14587411      -0.03373078       0.00170269      -0.00605475
Si       3.52758712       4.69305062       1.74515159       0.03373078      -0.00170269      -0.00605475
Si       3.72745695       0.72075126       0.04479034       0.00170269       0.03373078      -0.00605475
Si       4.69305062       3.52758712       5.05629343      -0.00170269       0.03373078       0.00605475
Si       4.89292046       1.88621476       3.35593217      -0.03373078      -0.00170269       0.00605475
12
Lattice="5.611830169402445 1.7340669138404902e-63 2.318429127405158e-47 -1.6043536259930795e-63 5.611830169402445 -1.2381987724915847e-17 -2.765229839235295e-47 -9.469336201647167e-18 6.805909606352195" Properties=species:S:1:pos:R:3:forces:R:3 cutoff=-1.0 nneightol=1.2 n_minim_iter=4 energy=-1956.0405010788245 stress="-0.014575462837704207 3.356566248028779e-16 -1.567422755861097e-16 3.356566248028779e-16 -0.01457546283770441 -7.046178975306179e-17 -1.567422755861097e-16 -7.046178975306179e-17 -0.014575036316263607" free_energy=-1956.0405010788245 pbc="T T T"
Si       0.45455670       0.45455670      -0.00000000      -0.00857646      -0.00857646       0.00000000
Si      -0.45455671      -0.45455671       3.40295480       0.00857646       0.00857646      -0.00000000
Si       2.35135838       3.26047179       5.10443220       0.00857646      -0.00857646       0.00000000
Si       3.26047179       2.35135838       1.70147740      -0.00857646       0.00857646       0.00000000
Si       0.72421478       3.72577205      -0.04139318       0.00647257       0.02052420       0.00293403
Si       0.91985696       2.08170030       1.66008422       0.02052420      -0.00647257       0.00293403
Si       1.88605812       4.88761539       3.44434798      -0.02052420      -0.00647257      -0.00293403
Si       2.08170030       0.91985696       5.14582539      -0.00647257       0.02052420      -0.00293403
Si       3.53012986       4.69197320       1.74287058       0.00647257      -0.02052420      -0.00293403
Si       3.72577205       0.72421478       0.04139318       0.02052420       0.00647257      -0.00293403
Si       4.69197320       3.53012986       5.06303902      -0.02052420       0.00647257       0.00293403
Si       4.88761539       1.88605812       3.36156162      -0.00647257      -0.02052420       0.00293403
12
Lattice="5.612920344760555 9.150031298327963e-64 2.3195537558916544e-47 1.7694436722323663e-63 5.612920344760555 -2.589668996983084e-17 -2.7633135691208905e-47 -2.5742215188323207e-17 6.803266093192022" Properties=species:S:1:pos:R:3:forces:R:3 cutoff=-1.0 nneightol=1.2 n_minim_iter=5 energy=-1956.0406653050636 stress="-0.014494989684986043 3.714823900615423e-16 3.489056427015415e-16 3.714823900615423e-16 -0.01449498968498614 3.447982043487184e-16 3.489056427015415e-16 3.447982043487184e-16 -0.014535488890588973" free_energy=-1956.0406653050636 pbc="T T T"
Si       0.45450955       0.45450955      -0.00000000       0.00154001       0.00154001       0.00000000
Si      -0.45450956      -0.45450956       3.40163305      -0.00154001      -0.00154001       0.00000000
Si       2.35195062       3.26096972       5.10244957      -0.00154001       0.00154001      -0.00000000
Si       3.26096972       2.35195062       1.70081652       0.00154001      -0.00154001       0.00000000
Si       0.72551454       3.72795233      -0.04053943      -0.00148697       0.00137455       0.00047128
Si       0.92149216       2.08094562       1.66027709       0.00137455       0.00148697       0.00047128
Si       1.88496801       4.88740580       3.44217248      -0.00137455       0.00148697      -0.00047128
Si       2.08094562       0.92149216       5.14298900       0.00148697       0.00137455      -0.00047128
Si       3.53197472       4.69142818       1.74135595      -0.00148697      -0.00137455      -0.00047128
Si       3.72795233       0.72551454       0.04053943       0.00137455      -0.00148697      -0.00047128
Si       4.69142818       3.53197472       5.06191014      -0.00137455      -0.00148697       0.00047128
Si       4.88740580       1.88496801       3.36109362       0.00148697      -0.00137455       0.00047128
