12
Lattice="5.51889083 0.0 0.0 0.0 5.51889083 0.0 0.0 0.0 6.95380245" Properties=species:S:1:pos:R:3:forces:R:3 cutoff=-1.0 nneightol=1.2 n_minim_iter=1 energy=-1954.668767241559 stress="-0.03157473585719165 2.318677255650411e-16 -3.820814170951411e-17 2.318677255650411e-16 -0.031574735857191664 -1.4333172131114616e-18 -3.820814170951411e-17 -1.4333172131114616e-18 0.05276271878932077" free_energy=-1954.668767241559 pbc="T T T"
Si       0.46855383       0.46855383       0.00000000       1.06397171       1.06397171       0.00000000
Si      -0.46855383      -0.46855383       3.47690123      -1.06397171      -1.06397171       0.00000000
Si       2.29089158       3.22799925       5.21535184      -1.06397171       1.06397171       0.00000000
Si       3.22799925       2.29089158       1.73845061       1.06397171      -1.06397171       0.00000000
Si       0.66668201       3.72635509       0.16828202       0.47249202      -0.97789538      -0.82469816
Si       0.96690967       2.09276340       1.90673263      -0.97789538      -0.47249202      -0.82469816
Si       1.79253574       4.85220881       3.30861920       0.97789538      -0.47249202       0.82469816
Si       2.09276340       0.96690967       5.04706982      -0.47249202      -0.97789538       0.82469816
Si       3.42612743       4.55198115       1.57016859       0.47249202       0.97789538       0.82469816
Si       3.72635509       0.66668201      -0.16828202      -0.97789538       0.47249202       0.82469816
Si       4.55198115       3.42612743       5.38363386       0.97789538       0.47249202      -0.82469816
Si       4.85220881       1.79253574       3.64518325      -0.47249202       0.97789538      -0.82469816
12
Lattice="5.652591200450986 0.0 0.0 0.0 5.652591200450986 0.0 0.0 0.0 6.6811399559115525" Properties=species:S:1:pos:R:3:forces:R:3 cutoff=-1.0 nneightol=1.2 n_minim_iter=2 energy=-1955.1860044866264 stress="-0.0020924048977277523 6.649867166278695e-16 2.093233668605141e-16 6.649867166278695e-16 -0.0020924048977273976 -7.44354762053363e-18 2.093233668605141e-16 -7.44354762053363e-18 0.01573014069985682" free_energy=-1955.1860044866264 pbc="T T T"
Si       0.48380560       0.48380560       0.00000000       0.54638452       0.54638452       0.00000000
Si      -0.48380561      -0.48380561       3.34056998      -0.54638452      -0.54638452       0.00000000
Si       2.34248999       3.31010120       5.01085497      -0.54638452       0.54638452      -0.00000000
Si       3.31010120       2.34248999       1.67028499       0.54638452      -0.54638452       0.00000000
Si       0.68456521       3.81304453       0.15884743       0.39193274      -0.37722533      -0.80143916
Si       0.98674893       2.14173038       1.82913242      -0.37722533      -0.39193274      -0.80143916
Si       1.83954667       4.96802598       3.18172255       0.37722533      -0.39193274       0.80143916
Si       2.14173038       0.98674893       4.85200754      -0.39193274      -0.37722533       0.80143916
Si       3.51086081       4.66584227       1.51143756       0.39193274       0.37722533       0.80143916
Si       3.81304453       0.68456521      -0.15884743      -0.37722533       0.39193274       0.80143916
Si       4.66584227       3.51086081       5.16970240       0.37722533       0.39193274      -0.80143916
Si       4.96802598       1.83954667       3.49941741      -0.39193274       0.37722533      -0.80143916
12
Lattice="5.609792523954621 0.0 0.0 0.0 5.609792523954621 0.0 0.0 0.0 6.618916488480303" Properties=species:S:1:pos:R:3:forces:R:3 cutoff=-1.0 nneightol=1.2 n_minim_iter=3 energy=-1955.2290744754607 stress="-0.015262924411667001 6.358185093487192e-16 -9.478293357038426e-17 6.358185093487192e-16 -0.01526292441166634 -1.08191291627525e-16 -9.478293357038426e-17 -1.08191291627525e-16 -0.001445732741310713" free_energy=-1955.2290744754607 pbc="T T T"
Si       0.48310768       0.48310768       0.00000000       0.51386391       0.51386391      -0.00000000
Si      -0.48310768      -0.48310768       3.30945824      -0.51386391      -0.51386391       0.00000000
Si       2.32178858       3.28800394       4.96418737      -0.51386391       0.51386391      -0.00000000
Si       3.28800394       2.32178858       1.65472912       0.51386391      -0.51386391       0.00000000
Si       0.68201157       3.78254744       0.15251263       0.41607139      -0.36452085      -0.72517899
Si       0.97765117       2.12288469       1.80724175      -0.36452085      -0.41607139      -0.72517899
Si       1.82724508       4.92778095       3.15694561       0.36452085      -0.41607139       0.72517899
Si       2.12288469       0.97765117       4.81167474      -0.41607139      -0.36452085       0.72517899
Si       3.48690783       4.63214134       1.50221649       0.41607139       0.36452085       0.72517899
Si       3.78254744       0.68201157      -0.15251263      -0.36452085       0.41607139       0.72517899
Si       4.63214134       3.48690783       5.11670000       0.36452085       0.41607139      -0.72517899
Si       4.92778095       1.82724508       3.46197087      -0.41607139       0.36452085      -0.72517899
12
Lattice="5.5687556710299155 -4.795069105529882e-97 3.786034737264786e-50 2.094997994849111e-97 5.5687556710299155 2.0216802889901836e-50 -2.931263946057491e-48 -2.952419709762889e-48 6.785842933862411" Properties=species:S:1:pos:R:3:forces:R:3 cutoff=-1.0 nneightol=1.2 n_minim_iter=4 energy=-1955.6832069549234 stress="-0.01309325255910167 -3.1469036784942537e-16 3.3523721828269084e-16 -3.1469036784942537e-16 -0.013093252559102356 -1.5136660688289694e-16 3.3523721828269084e-16 -1.5136660688289694e-16 0.0014757459229075513" free_energy=-1955.6832069549234 pbc="T T T"
Si       0.51839896       0.51839896       0.00000000      -0.13002045      -0.13002045      -0.00000000
Si      -0.51839896      -0.51839896       3.39292147       0.13002045       0.13002045      -0.00000000
Si       2.26597887       3.30277679       5.08938220       0.13002045      -0.13002045      -0.00000000
Si       3.30277679       2.26597887       1.69646073      -0.13002045       0.13002045      -0.00000000
Si       0.71416802       3.73385373       0.09009688       0.09946721      -0.02006693      -0.47542111
Si       0.94947589       2.07020981       1.78655761      -0.02006693      -0.09946721      -0.47542111
Si       1.83490194       4.85458764       3.30282459       0.02006693      -0.09946721       0.47542111
Si       2.07020981       0.94947589       4.99928532      -0.09946721      -0.02006693       0.47542111
Si       3.49854586       4.61927977       1.60636385       0.09946721       0.02006693       0.47542111
Si       3.73385373       0.71416802      -0.09009688      -0.02006693       0.09946721       0.47542111
Si       4.61927977       3.49854586       5.17947908       0.02006693       0.09946721      -0.47542111
Si       4.85458764       1.83490194       3.48301835      -0.09946721       0.02006693      -0.47542111
12
Lattice="5.621814513441573 -8.099117860658664e-97 1.2977851201620929e-47 9.577767325728834e-95 5.621814513441573 1.2926604832800348e-47 2.8314183000782796e-47 2.8251807050568374e-47 6.764474280805467" Properties=species:S:1:pos:R:3:forces:R:3 cutoff=-1.0 nneightol=1.2 n_minim_iter=5 energy=-1955.9281826466233 stress="-0.011794468006426612 7.108240732203875e-16 -3.866799220268435e-16 7.108240732203875e-16 -0.01179446800642717 8.820083417126825e-17 -3.866799220268435e-16 8.820083417126825e-17 -0.009192128553403081" free_energy=-1955.9281826466233 pbc="T T T"
Si       0.49706004       0.49706004       0.00000000      -0.04025795      -0.04025795      -0.00000000
Si      -0.49706004      -0.49706004       3.38223714       0.04025795       0.04025795      -0.00000000
Si       2.31384721       3.30796729       5.07335571       0.04025795      -0.04025795       0.00000000
Si       3.30796729       2.31384721       1.69111857      -0.04025795       0.04025795       0.00000000
Si       0.73738858       3.78174818       0.01449981      -0.11987459      -0.30349586      -0.15955462
Si       0.97084093       2.07351868       1.70561838      -0.30349586       0.11987459      -0.15955462
Si       1.84006632       4.88442593       3.36773733       0.30349586       0.11987459       0.15955462
Si       2.07351868       0.97084093       5.05885590       0.11987459      -0.30349586       0.15955462
Si       3.54829583       4.65097358       1.67661876      -0.11987459       0.30349586       0.15955462
Si       3.78174818       0.73738858      -0.01449981      -0.30349586      -0.11987459       0.15955462
Si       4.65097358       3.54829583       5.08785552       0.30349586      -0.11987459      -0.15955462
Si       4.88442593       1.84006632       3.39673695       0.11987459       0.30349586      -0.15955462
12
Lattice="5.631719202879628 -8.113387140966689e-97 1.1924799698347902e-47 9.933383742900842e-95 5.631719202879628 1.3078472106268616e-47 3.0136700009930057e-47 2.8301581971855914e-47 6.84394621320843" Properties=species:S:1:pos:R:3:forces:R:3 cutoff=-1.0 nneightol=1.2 n_minim_iter=6 energy=-1956.064198803419 stress="-0.007981240972276185 -1.1311516700351097e-16 -1.5649835790916022e-16 -1.1311516700351097e-16 -0.007981240972275637 -2.9254583886749487e-16 -1.5649835790916022e-16 -2.9254583886749487e-16 -0.005981132905835155" free_energy=-1956.064198803419 pbc="T T T"
Si       0.46820950       0.46820950       0.00000000      -0.07068469      -0.07068469       0.00000000
Si      -0.46820950      -0.46820950       3.42197311       0.07068469       0.07068469       0.00000000
Si       2.34765010       3.28406910       5.13295966       0.07068469      -0.07068469       0.00000000
Si       3.28406910       2.34765010       1.71098655      -0.07068469       0.07068469      -0.00000000
Si       0.71301865       3.74663267      -0.04828065       0.05011962       0.02167453       0.00434611
Si       0.93077307       2.10284095       1.66270590       0.02167453      -0.05011962       0.00434611
Si       1.88508653       4.91870055       3.47025376      -0.02167453      -0.05011962      -0.00434611
Si       2.10284095       0.93077307       5.18124031      -0.05011962       0.02167453      -0.00434611
Si       3.52887825       4.70094613       1.75926720       0.05011962      -0.02167453      -0.00434611
Si       3.74663267       0.71301865       0.04828065       0.02167453       0.05011962      -0.00434611
Si       4.70094613       3.52887825       5.08467901      -0.02167453       0.05011962       0.00434611
Si       4.91870055       1.88508653       3.37369246      -0.05011962      -0.02167453       0.00434611
12
Lattice="5.649062153064751 -1.1841602115136752e-77 3.7503231545226107e-47 2.1422623767185031e-63 5.649062153064751 -6.792716907504513e-31 3.018549252988728e-47 -8.146734555773228e-31 6.851417527625217" Properties=species:S:1:pos:R:3:forces:R:3 cutoff=-1.0 nneightol=1.2 n_minim_iter=7 energy=-1956.0774130670893 stress="-0.0029255014183236427 3.7431049656794055e-16 -4.069116693812026e-16 3.7431049656794055e-16 -0.0029255014183236865 -2.7858174247243983e-16 -4.069116693812026e-16 -2.7858174247243983e-16 -0.0025203763653381694" free_energy=-1956.0774130670893 pbc="T T T"
Si       0.45279007       0.45279007      -0.00000000       0.01298869       0.01298869       0.00000000
Si      -0.45279007      -0.45279007       3.42570876      -0.01298869      -0.01298869       0.00000000
Si       2.37174100       3.27732114       5.13856315      -0.01298869       0.01298869       0.00000000
Si       3.27732114       2.37174100       1.71285438       0.01298869      -0.01298869      -0.00000000
Si       0.73035567       3.74902290      -0.05239927      -0.01321990       0.01474976      -0.00719127
Si       0.92449182       2.09417540       1.66045511       0.01474976       0.01321990      -0.00719127
Si       1.90003925       4.91870647       3.47810804      -0.01474976       0.01321990       0.00719127
Si       2.09417540       0.92449182       5.19096242       0.01321990       0.01474976       0.00719127
Si       3.55488675       4.72457032       1.76525366      -0.01321990      -0.01474976       0.00719127
Si       3.74902290       0.73035567       0.05239927       0.01474976      -0.01321990       0.00719127
Si       4.72457032       3.55488675       5.08616387      -0.01474976      -0.01321990      -0.00719127
Si       4.91870647       1.90003925       3.37330949       0.01321990      -0.01474976      -0.00719127
12
Lattice="5.6604602208715 1.7094255269323681e-63 2.3175636427258763e-47 2.549189488559343e-63 5.6604602208715 -2.2718567505407427e-18 2.919791572868881e-47 -2.746815049206377e-18 6.857363786777934" Properties=species:S:1:pos:R:3:forces:R:3 cutoff=-1.0 nneightol=1.2 n_minim_iter=8 energy=-1956.0798088945219 stress="-0.0003964645067006124 3.7582101628999774e-16 2.8852052716966125e-16 3.7582101628999774e-16 -0.0003964645067004603 3.819912061878062e-16 2.8852052716966125e-16 3.819912061878062e-16 -0.00022527183671067644" free_energy=-1956.0798088945219 pbc="T T T"
Si       0.45676360       0.45676360      -0.00000000       0.01242504       0.01242504       0.00000000
Si      -0.45676361      -0.45676361       3.42868189      -0.01242504      -0.01242504       0.00000000
Si       2.37346650       3.28699371       5.14302284      -0.01242504       0.01242504       0.00000000
Si       3.28699371       2.37346650       1.71434095       0.01242504      -0.01242504      -0.00000000
Si       0.72630810       3.76157524      -0.05655760       0.00368920      -0.01298359       0.00033014
Si       0.93134513       2.10392200       1.65778334      -0.01298359      -0.00368920       0.00033014
Si       1.89888497       4.93415211       3.48523950       0.01298359      -0.00368920      -0.00033014
Si       2.10392200       0.93134513       5.19958044      -0.00368920      -0.01298359      -0.00033014
Si       3.55653821       4.72911508       1.77089855       0.00368920       0.01298359      -0.00033014
Si       3.76157524       0.72630810       0.05655760      -0.01298359       0.00368920      -0.00033014
Si       4.72911508       3.55653821       5.08646524       0.01298359       0.00368920       0.00033014
Si       4.93415211       1.89888497       3.37212429      -0.00368920       0.01298359       0.00033014
12
Lattice="5.66077045667551 1.709519216311332e-63 2.319889942113083e-47 2.2003969465264957e-63 5.66077045667551 -2.272810698193949e-18 2.9215908843229887e-47 -2.7469655953354905e-18 6.860243178751137" Properties=species:S:1:pos:R:3:forces:R:3 cutoff=-1.0 nneightol=1.2 n_minim_iter=9 energy=-1956.079892241352 stress="-3.8401442697867555e-05 1.3031030277509802e-16 5.716438805163393e-16 1.3031030277509802e-16 -3.840144269743384e-05 -4.703591550678228e-16 5.716438805163393e-16 -4.703591550678228e-16 7.67806186349532e-05" free_energy=-1956.079892241352 pbc="T T T"
Si       0.45744541       0.45744541      -0.00000000      -0.00226212      -0.00226212      -0.00000000
Si      -0.45744542      -0.45744542       3.43012159       0.00226212       0.00226212       0.00000000
Si       2.37293981       3.28783064       5.14518238       0.00226212      -0.00226212       0.00000000
Si       3.28783064       2.37293981       1.71506079      -0.00226212       0.00226212       0.00000000
Si       0.72703103       3.76100900      -0.05651214      -0.00220875       0.00005090       0.00192650
Si       0.93062378       2.10335420       1.65854865       0.00005090       0.00220875       0.00192650
Si       1.89976145       4.93373943       3.48663373      -0.00005090       0.00220875      -0.00192650
Si       2.10335420       0.93062378       5.20169453       0.00220875       0.00005090      -0.00192650
Si       3.55741625       4.73014668       1.77157294      -0.00220875      -0.00005090      -0.00192650
Si       3.76100900       0.72703103       0.05651214       0.00005090      -0.00220875      -0.00192650
Si       4.73014668       3.55741625       5.08867024      -0.00005090      -0.00220875       0.00192650
Si       4.93373943       1.89976145       3.37360945       0.00220875      -0.00005090       0.00192650
