12
Lattice="5.564530692499121 9.07114779285997e-64 2.2995566077486074e-47 1.7541890883907402e-63 5.564530692499121 -2.5673431532975945e-17 -2.7394907149761884e-47 -2.552028849688802e-17 6.744614328999631" Properties=species:S:1:pos:R:3:forces:R:3 cutoff=-1.0 nneightol=1.2 n_minim_iter=5 energy=-1956.0406653050636 stress="-0.014494989684986043 3.714823900615423e-16 3.489056427015415e-16 3.714823900615423e-16 -0.01449498968498614 3.447982043487184e-16 3.489056427015415e-16 3.447982043487184e-16 -0.014535488890588973" free_energy=-1956.0406653050636 pbc="T T T"
Si       0.45059117       0.45059117      -0.00000000       0.00154001       0.00154001       0.00000000
Si      -0.45059118      -0.45059118       3.37230716      -0.00154001      -0.00154001       0.00000000
Si       2.33167417       3.23285652       5.05846075      -0.00154001       0.00154001      -0.00000000
Si       3.23285652       2.33167417       1.68615358       0.00154001      -0.00154001       0.00000000
Si       0.71925980       3.69581321      -0.04018993      -0.00148697       0.00137455       0.00047128
Si       0.91354787       2.06300554       1.64596365       0.00137455       0.00148697       0.00047128
Si       1.86871747       4.84527089       3.41249710      -0.00137455       0.00148697      -0.00047128
Si       2.06300554       0.91354787       5.09865068       0.00148697       0.00137455      -0.00047128
Si       3.50152514       4.65098282       1.72634352      -0.00148697      -0.00137455      -0.00047128
Si       3.69581321       0.71925980       0.04018993       0.00137455      -0.00148697      -0.00047128
Si       4.65098282       3.50152514       5.01827081      -0.00137455      -0.00148697       0.00047128
Si       4.84527089       1.86871747       3.33211723       0.00148697      -0.00137455       0.00047128
