12
Lattice="5.514899606131268 5.270532068027604e-61 2.2979641158201283e-47 -5.481389146950646e-61 5.514899606131268 9.553275926230556e-18 -2.7386007117784147e-47 7.492554163585924e-17 6.685857422605837" Properties=species:S:1:pos:R:3:forces:R:3 cutoff=-1.0 nneightol=1.2 n_minim_iter=5 energy=-1955.9183946818127 stress="-0.030070519539288423 6.537184618263115e-17 5.183896031214288e-16 6.537184618263115e-17 -0.030070519539288333 -2.4809736998511144e-16 5.183896031214288e-16 -2.4809736998511144e-16 -0.030041751868307556" free_energy=-1955.9183946818127 pbc="T T T"
Si       0.44852006       0.44852006       0.00000000       0.00253800       0.00253800      -0.00000000
Si      -0.44852006      -0.44852006       3.34292871      -0.00253800      -0.00253800      -0.00000000
Si       2.30892974       3.20596986       5.01439307      -0.00253800       0.00253800       0.00000000
Si       3.20596986       2.30892974       1.67146436       0.00253800      -0.00253800      -0.00000000
Si       0.71889075       3.66198699      -0.02111972      -0.00179413       0.00106508       0.00026267
Si       0.90453719       2.03855905       1.65034464       0.00106508       0.00179413       0.00026267
Si       1.85291261       4.79600885       3.36404843      -0.00106508       0.00179413      -0.00026267
Si       2.03855905       0.90453719       5.03551279       0.00179413       0.00106508      -0.00026267
Si       3.47634055       4.61036241       1.69258407      -0.00179413      -0.00106508      -0.00026267
Si       3.66198699       0.71889075       0.02111972       0.00106508      -0.00179413      -0.00026267
Si       4.61036241       3.47634055       4.99327335      -0.00106508      -0.00179413       0.00026267
Si       4.79600885       1.85291261       3.32180899       0.00179413      -0.00106508       0.00026267
