12
Lattice="5.320322779848989 4.9480670491418096e-61 2.269283362590739e-47 -4.947064319357808e-61 5.320322779848989 -2.7265014924370766e-17 -2.7005906441257115e-47 3.271998298571858e-17 6.407204500904314" Properties=species:S:1:pos:R:3:forces:R:3 cutoff=-1.0 nneightol=1.2 n_minim_iter=4 energy=-1953.935467149645 stress="-0.1265477574281516 2.603597197545934e-16 6.698571599505397e-16 2.603597197545934e-16 -0.12654775742815133 -7.589265835491719e-16 6.698571599505397e-16 -7.589265835491719e-16 -0.12703692325811508" free_energy=-1953.935467149645 pbc="T T T"
Si       0.45448509       0.45448509      -0.00000000      -0.00554893      -0.00554893      -0.00000000
Si      -0.45448509      -0.45448509       3.20360225       0.00554893       0.00554893      -0.00000000
Si       2.20567630       3.11464648       4.80540338       0.00554893      -0.00554893       0.00000000
Si       3.11464648       2.20567630       1.60180113      -0.00554893       0.00554893      -0.00000000
Si       0.75509752       3.52943952       0.14766343       0.00145240       0.00464580      -0.00147692
Si       0.86927813       1.90506386       1.74946455       0.00464580      -0.00145240      -0.00147692
Si       1.79088325       4.56522525       3.05593882      -0.00464580      -0.00145240       0.00147692
Si       1.90506386       0.86927813       4.65773995      -0.00145240       0.00464580       0.00147692
Si       3.41525891       4.45104464       1.45413770       0.00145240      -0.00464580       0.00147692
Si       3.52943952       0.75509752      -0.14766343       0.00464580       0.00145240       0.00147692
Si       4.45104464       3.41525891       4.95306680      -0.00464580       0.00145240      -0.00147692
Si       4.56522525       1.79088325       3.35126568      -0.00145240      -0.00464580      -0.00147692
