12
Lattice="5.872554229655012 8.357360981227902e-63 2.4731250530168636e-47 -9.101438930057179e-63 5.872554229655012 5.577218625775058e-17 -2.9769177267819006e-47 -7.186471442219167e-17 7.171154025451647" Properties=species:S:1:pos:R:3:forces:R:3 cutoff=-1.0 nneightol=1.2 n_minim_iter=5 energy=-1955.5358835347567 stress="0.046469342423569635 -6.103974372139668e-18 -2.4692984029030415e-17 -6.103974372139668e-18 0.046469342423569954 4.409711234381376e-17 -2.4692984029030415e-17 4.409711234381376e-17 0.046453765690527386" free_energy=-1955.5358835347567 pbc="T T T"
Si       0.46252113       0.46252113       0.00000000      -0.00169260      -0.00169260      -0.00000000
Si      -0.46252114      -0.46252114       3.58557701       0.00169260       0.00169260      -0.00000000
Si       2.47375598       3.39879825       5.37836552       0.00169260      -0.00169260       0.00000000
Si       3.39879825       2.47375598       1.79278851      -0.00169260       0.00169260       0.00000000
Si       0.74829723       3.89632559      -0.11757509       0.00412964      -0.00111370       0.00046967
Si       0.96004848       2.18797988       1.67521342      -0.00111370      -0.00412964       0.00046967
Si       1.97622863       5.12425700       3.70315210       0.00111370      -0.00412964      -0.00046967
Si       2.18797988       0.96004848       5.49594061      -0.00412964      -0.00111370      -0.00046967
Si       3.68457434       4.91250574       1.91036359       0.00412964       0.00111370      -0.00046967
Si       3.89632559       0.74829723       0.11757509      -0.00111370       0.00412964      -0.00046967
Si       4.91250574       3.68457434       5.26079043       0.00111370       0.00412964       0.00046967
Si       5.12425700       1.97622863       3.46800193      -0.00412964       0.00111370       0.00046967
