12
Lattice="5.115387556008072 7.230146519993943e-61 2.210441121077714e-47 -7.229784692146129e-61 5.115387556008072 -8.373395031840589e-18 -2.7226711320379727e-47 1.0313778871082182e-17 6.3007867050261" Properties=species:S:1:pos:R:3:forces:R:3 cutoff=-1.0 nneightol=1.2 n_minim_iter=1 energy=-1950.9724347636318 stress="-0.25238840439843474 2.713288794391842e-15 -9.235787590030862e-16 2.713288794391842e-15 -0.25238840439843463 1.0245432357790446e-15 -9.235787590030862e-16 1.0245432357790446e-15 -0.2520208121478028" free_energy=-1950.9724347636318 pbc="T T T"
Si       0.46620444       0.46620444      -0.00000000       0.08791671       0.08791671       0.00000000
Si      -0.46620444      -0.46620444       3.15039335      -0.08791671      -0.08791671      -0.00000000
Si       2.09148934       3.02389822       4.72559003      -0.08791671       0.08791671       0.00000000
Si       3.02389822       2.09148934       1.57519668       0.08791671      -0.08791671      -0.00000000
Si       0.76860244       3.38027564       0.23236876       0.07261557      -0.07104052       0.33674579
Si       0.82258187       1.78909133       1.80756544      -0.07104052      -0.07261557       0.33674579
Si       1.73511191       4.34678511       2.91802459       0.07104052      -0.07261557      -0.33674579
Si       1.78909133       0.82258187       4.49322126      -0.07261557      -0.07104052      -0.33674579
Si       3.32629622       4.29280569       1.34282791       0.07261557       0.07104052      -0.33674579
Si       3.38027564       0.76860244      -0.23236876      -0.07104052       0.07261557      -0.33674579
Si       4.29280569       3.32629622       4.95795879       0.07104052       0.07261557       0.33674579
Si       4.34678511       1.73511191       3.38276212      -0.07261557       0.07104052       0.33674579
12
Lattice="5.127153286252326 7.24677633594616e-61 2.220765882590556e-47 -7.246417024665059e-61 5.127153286252326 -8.335008792365184e-18 -2.7037345477437343e-47 1.0337501245714959e-17 6.27190194485135" Properties=species:S:1:pos:R:3:forces:R:3 cutoff=-1.0 nneightol=1.2 n_minim_iter=2 energy=-1951.039178884036 stress="-0.2214318609783427 -2.6623646522914216e-16 -5.332304796796129e-16 -2.6623646522914216e-16 -0.22143186097834447 9.568688386736922e-16 -5.332304796796129e-16 9.568688386736922e-16 -0.24151829979291733" free_energy=-1951.039178884036 pbc="T T T"
Si       0.47729780       0.47729780      -0.00000000      -0.02509091      -0.02509091      -0.00000000
Si      -0.47729780      -0.47729780       3.13595097       0.02509091       0.02509091       0.00000000
Si       2.08627884       3.04087444       4.70392646       0.02509091      -0.02509091      -0.00000000
Si       3.04087444       2.08627884       1.56797549      -0.02509091       0.02509091       0.00000000
Si       0.77864726       3.37995305       0.26942335       0.12912343       0.22816187       0.13201357
Si       0.81637641       1.78492938       1.83739884       0.22816187      -0.12912343       0.13201357
Si       1.74720023       4.34850602       2.86652762      -0.22816187      -0.12912343      -0.13201357
Si       1.78492938       0.81637641       4.43450310      -0.12912343       0.22816187      -0.13201357
Si       3.34222390       4.31077687       1.29855213       0.12912343      -0.22816187      -0.13201357
Si       3.37995305       0.77864726      -0.26942335       0.22816187       0.12912343      -0.13201357
Si       4.31077687       3.34222390       4.97334981      -0.22816187       0.12912343       0.13201357
Si       4.34850602       1.74720023       3.40537433      -0.12912343      -0.22816187       0.13201357
12
Lattice="5.067517171061687 7.163059533783356e-61 2.169331298376171e-47 -7.16211393678729e-61 5.067517171061687 4.709536561093055e-18 -2.799520549522548e-47 2.6415676616344045e-17 6.4203899383627965" Properties=species:S:1:pos:R:3:forces:R:3 cutoff=-1.0 nneightol=1.2 n_minim_iter=3 energy=-1951.0749199711586 stress="-0.20560731783824301 -5.287693564873449e-16 6.156350005330214e-16 -5.287693564873449e-16 -0.20560731783824338 2.0066637151636902e-16 6.156350005330214e-16 2.0066637151636902e-16 -0.19144552893075426" free_energy=-1951.0749199711586 pbc="T T T"
Si       0.48096792       0.48096792       0.00000000       0.36082409       0.36082409       0.00000000
Si      -0.48096793      -0.48096793       3.21019497      -0.36082409      -0.36082409      -0.00000000
Si       2.05279066       3.01472651       4.81529245      -0.36082409       0.36082409       0.00000000
Si       3.01472651       2.05279066       1.60509748       0.36082409      -0.36082409      -0.00000000
Si       0.77908230       3.33578902       0.31505890       0.25975394      -0.02602361      -0.13376111
Si       0.80203044       1.75467628       1.92015638      -0.02602361      -0.25975394      -0.13376111
Si       1.73172814       4.28843487       2.89513607       0.02602361      -0.25975394       0.13376111
Si       1.75467628       0.80203044       4.50023356      -0.25975394      -0.02602361       0.13376111
Si       3.31284089       4.26548673       1.29003859       0.25975394       0.02602361       0.13376111
Si       3.33578902       0.77908230      -0.31505890      -0.02602361       0.25975394       0.13376111
Si       4.26548673       3.31284089       5.13035135       0.02602361       0.25975394      -0.13376111
Si       4.28843487       1.73172814       3.52525387      -0.25975394       0.02602361      -0.13376111
12
Lattice="5.042813609262071 7.140191580820416e-61 2.14502975578167e-47 -7.141665059324618e-61 5.042813609262071 4.7557914114271506e-18 -2.8436567679300774e-47 2.6286903239216115e-17 6.483447984910263" Properties=species:S:1:pos:R:3:forces:R:3 cutoff=-1.0 nneightol=1.2 n_minim_iter=4 energy=-1951.133807182277 stress="-0.18195720358584228 -4.56802180461131e-16 4.646301890815262e-16 -4.56802180461131e-16 -0.1819572035858416 7.036790544785434e-17 4.646301890815262e-16 7.036790544785434e-17 -0.1688823667931292" free_energy=-1951.133807182277 pbc="T T T"
Si       0.50650625       0.50650625       0.00000000       0.24384703       0.24384703      -0.00000000
Si      -0.50650626      -0.50650626       3.24172399      -0.24384703      -0.24384703      -0.00000000
Si       2.01490055       3.02791306       4.86258599      -0.24384703       0.24384703      -0.00000000
Si       3.02791306       2.01490055       1.62086200       0.24384703      -0.24384703      -0.00000000
Si       0.80356532       3.32474883       0.33994146       0.05519900      -0.06674691      -0.08366948
Si       0.80334203       1.71784148       1.96080346      -0.06674691      -0.05519900      -0.08366948
Si       1.71806477       4.23924829       2.90178253       0.06674691      -0.05519900       0.08366948
Si       1.71784148       0.80334203       4.52264453      -0.05519900      -0.06674691       0.08366948
Si       3.32497212       4.23947158       1.28092054       0.05519900       0.06674691       0.08366948
Si       3.32474883       0.80356532      -0.33994146      -0.06674691       0.05519900       0.08366948
Si       4.23947158       3.32497212       5.20252745       0.06674691       0.05519900      -0.08366948
Si       4.23924829       1.71806477       3.58166545      -0.05519900       0.06674691      -0.08366948
12
Lattice="5.021707973214553 7.109984981881775e-61 2.1228084291210183e-47 -7.112359415543561e-61 5.021707973214553 1.087180871819651e-17 -2.8835571083020567e-47 3.403792516086316e-17 6.5380608176741335" Properties=species:S:1:pos:R:3:forces:R:3 cutoff=-1.0 nneightol=1.2 n_minim_iter=5 energy=-1951.1659348259025 stress="-0.16073755063189596 -1.6935433703478885e-15 -1.4103041337067034e-16 -1.6935433703478885e-15 -0.16073755063189615 -4.604215822963694e-16 -1.4103041337067034e-16 -4.604215822963694e-16 -0.15863067742654036" free_energy=-1951.1659348259025 pbc="T T T"
Si       0.55991896       0.55991896       0.00000000       0.04602562       0.04602562       0.00000000
Si      -0.55991897      -0.55991897       3.26903041      -0.04602562      -0.04602562      -0.00000000
Si       1.95093502       3.07077295       4.90354561      -0.04602562       0.04602562      -0.00000000
Si       3.07077295       1.95093502       1.63451520       0.04602562      -0.04602562       0.00000000
Si       0.77888381       3.33003204       0.35583070       0.10099786       0.05991713      -0.01995884
Si       0.81917805       1.73197017       1.99034590       0.05991713      -0.10099786      -0.01995884
Si       1.69167593       4.24282416       2.91319971      -0.05991713      -0.10099786       0.01995884
Si       1.73197017       0.81917805       4.54771491      -0.10099786       0.05991713       0.01995884
Si       3.28973780       4.20252992       1.27868451       0.10099786      -0.05991713       0.01995884
Si       3.33003204       0.77888381      -0.35583070       0.05991713       0.10099786       0.01995884
Si       4.20252992       3.28973780       5.25937631      -0.05991713       0.10099786      -0.01995884
Si       4.24282416       1.69167593       3.62486111      -0.10099786      -0.05991713      -0.01995884
12
Lattice="5.031318551338299 7.123742275689356e-61 2.135499803931084e-47 -7.126116762520918e-61 5.031318551338299 1.0830314793489165e-17 -2.8620675934393923e-47 3.4103067168457703e-17 6.513107306226994" Properties=species:S:1:pos:R:3:forces:R:3 cutoff=-1.0 nneightol=1.2 n_minim_iter=6 energy=-1951.1692277984766 stress="-0.15859205514674313 3.959878124155883e-16 1.1704556330205045e-15 3.959878124155883e-16 -0.15859205514674035 1.6718269593364683e-15 1.1704556330205045e-15 1.6718269593364683e-15 -0.15921339216796293" free_energy=-1951.1692277984766 pbc="T T T"
Si       0.56459954       0.56459954       0.00000000       0.05238891       0.05238891       0.00000000
Si      -0.56459954      -0.56459954       3.25655365      -0.05238891      -0.05238891       0.00000000
Si       1.95105973       3.08025881       4.88483048      -0.05238891       0.05238891      -0.00000000
Si       3.08025881       1.95105973       1.62827683       0.05238891      -0.05238891       0.00000000
Si       0.78058303       3.34566012       0.35889062       0.07618927      -0.01007024      -0.01326147
Si       0.83000084       1.73507625       1.98716745      -0.01007024      -0.07618927      -0.01326147
Si       1.68565843       4.25073552       2.89766303       0.01007024      -0.07618927       0.01326147
Si       1.73507625       0.83000084       4.52593986      -0.07618927      -0.01007024       0.01326147
Si       3.29624230       4.20131771       1.26938620       0.07618927       0.01007024       0.01326147
Si       3.34566012       0.78058303      -0.35889062      -0.01007024       0.07618927       0.01326147
Si       4.20131771       3.29624230       5.24372110       0.01007024       0.07618927      -0.01326147
Si       4.25073552       1.68565843       3.61544428      -0.07618927       0.01007024      -0.01326147
12
Lattice="4.734185492167591 6.687018826809364e-61 1.684384495142494e-47 -6.0945820648649426e-61 4.73418549216759 -1.7120911426171695e-16 -3.6466688487948917e-47 -2.2093347101383707e-16 7.356332029435904" Properties=species:S:1:pos:R:3:forces:R:3 cutoff=-1.0 nneightol=1.2 n_minim_iter=7 energy=-1951.9338040165858 stress="-0.08008861127300163 1.736260729217274e-16 -1.2519973894829736e-15 1.736260729217274e-16 -0.08008861127300099 1.7908042731529325e-15 -1.2519973894829736e-15 1.7908042731529325e-15 -0.11049385239175796" free_energy=-1951.9338040165858 pbc="T T T"
Si       0.92390378       0.92390378      -0.00000000      -0.26951329      -0.26951329      -0.00000000
Si      -0.92390379      -0.92390379       3.67816601       0.26951329       0.26951329      -0.00000000
Si       1.44318896       3.29099653       5.51724902       0.26951329      -0.26951329       0.00000000
Si       3.29099653       1.44318896       1.83908301      -0.26951329       0.26951329       0.00000000
Si       0.91787544       3.23580408       0.69201566       0.18402832       0.72068327      -0.21486934
Si       0.86871133       1.44921731       2.53109867       0.72068327      -0.18402832      -0.21486934
Si       1.49838141       3.81631005       2.98615035      -0.72068327      -0.18402832       0.21486934
Si       1.44921731       0.86871133       4.82523336      -0.18402832       0.72068327       0.21486934
Si       3.28496818       3.86547416       1.14706734       0.18402832      -0.72068327       0.21486934
Si       3.23580408       0.91787544      -0.69201566       0.72068327       0.18402832       0.21486934
Si       3.86547416       3.28496818       6.20926469      -0.72068327       0.18402832      -0.21486934
Si       3.81631005       1.49838141       4.37018168      -0.18402832      -0.72068327      -0.21486934
12
Lattice="4.72390613109619 6.671612748415326e-61 1.662789177777393e-47 -6.164548806228357e-61 4.723906131096189 -1.7419068401962176e-16 -3.68369341875654e-47 -2.23865255775316e-16 7.388382059615884" Properties=species:S:1:pos:R:3:forces:R:3 cutoff=-1.0 nneightol=1.2 n_minim_iter=8 energy=-1951.9381623393015 stress="-0.08153118868916513 -8.206783231059728e-19 -4.905657283950767e-16 -8.206783231059728e-19 -0.0815311886891642 1.1497913737053938e-16 -4.905657283950767e-16 1.1497913737053938e-16 -0.11196365315265482" free_energy=-1951.9381623393015 pbc="T T T"
Si       0.93546548       0.93546548      -0.00000000      -0.32185619      -0.32185619       0.00000000
Si      -0.93546548      -0.93546548       3.69419103       0.32185619       0.32185619       0.00000000
Si       1.42648758       3.29741854       5.54128654       0.32185619      -0.32185619       0.00000000
Si       3.29741854       1.42648758       1.84709551      -0.32185619       0.32185619       0.00000000
Si       0.92207115       3.23257450       0.70392710       0.19340865       0.75923730      -0.27013928
Si       0.87062143       1.43988191       2.55102261       0.75923730      -0.19340865      -0.27013928
Si       1.49133163       3.80183497       2.99026393      -0.75923730      -0.19340865       0.27013928
Si       1.43988191       0.87062143       4.83735945      -0.19340865       0.75923730       0.27013928
Si       3.28402422       3.85328470       1.14316842       0.19340865      -0.75923730       0.27013928
Si       3.23257450       0.92207115      -0.70392710       0.75923730       0.19340865       0.27013928
Si       3.85328470       3.28402422       6.24521364      -0.75923730       0.19340865      -0.27013928
Si       3.80183497       1.49133163       4.39811813      -0.19340865      -0.75923730      -0.27013928
12
Lattice="4.623114219256053 -1.1948042440537823e-59 1.4150569374297948e-47 1.2030670479764966e-59 4.623114219256051 -2.4849619172247457e-16 -4.1080218797674183e-47 -3.2130076072488476e-16 7.7140529711872565" Properties=species:S:1:pos:R:3:forces:R:3 cutoff=-1.0 nneightol=1.2 n_minim_iter=9 energy=-1952.3064773734202 stress="-0.10483210222437653 1.2849665628862756e-16 -6.745890328606097e-16 1.2849665628862756e-16 -0.10483210222437728 1.1629985078731261e-15 -6.745890328606097e-16 1.1629985078731261e-15 -0.09081069298173727" free_energy=-1952.3064773734202 pbc="T T T"
Si       0.99219297       0.99219297      -0.00000000      -0.50955163      -0.50955163      -0.00000000
Si      -0.99219297      -0.99219297       3.85702649       0.50955163       0.50955163      -0.00000000
Si       1.31936414       3.30375007       5.78553973       0.50955163      -0.50955163       0.00000000
Si       3.30375007       1.31936414       1.92851324      -0.50955163       0.50955163      -0.00000000
Si       0.98422301       3.21159959       0.70915315       0.24533253       1.12179170      -0.01956148
Si       0.90004248       1.32733409       2.63766639       1.12179170      -0.24533253      -0.01956148
Si       1.41151463       3.63889120       3.14787333      -1.12179170      -0.24533253       0.01956148
Si       1.32733409       0.90004248       5.07638658      -0.24533253       1.12179170       0.01956148
Si       3.29578012       3.72307174       1.21936009       0.24533253      -1.12179170       0.01956148
Si       3.21159959       0.98422301      -0.70915315       1.12179170       0.24533253       0.01956148
Si       3.72307174       3.29578012       6.49469288      -1.12179170       0.24533253      -0.01956148
Si       3.63889120       1.41151463       4.56617964      -0.24533253      -1.12179170      -0.01956148
12
Lattice="4.554939308400756 -1.19054711369287e-59 1.203311396914045e-47 1.1987232045432367e-59 4.554939308400754 -3.3150993487161737e-16 -4.47235186640515e-47 -4.4192429951280414e-16 7.946697365488685" Properties=species:S:1:pos:R:3:forces:R:3 cutoff=-1.0 nneightol=1.2 n_minim_iter=10 energy=-1952.773533604509 stress="-0.12492184813912326 6.231513092135081e-16 -9.049175334799392e-16 6.231513092135081e-16 -0.12492184813912538 4.929435912287737e-16 -9.049175334799392e-16 4.929435912287737e-16 -0.07054094749964392" free_energy=-1952.773533604509 pbc="T T T"
Si       1.06182140       1.06182140      -0.00000000      -0.51056544      -0.51056544       0.00000000
Si      -1.06182140      -1.06182140       3.97334868       0.51056544       0.51056544      -0.00000000
Si       1.21564825       3.33929105       5.96002302       0.51056544      -0.51056544      -0.00000000
Si       3.33929105       1.21564825       1.98667434      -0.51056544       0.51056544       0.00000000
Si       1.07157128       3.26322092       0.71473185       0.10150404       0.88339337      -0.09252774
Si       0.98575127       1.20589837       2.70140619       0.88339337      -0.10150404      -0.09252774
Si       1.29171838       3.48336803       3.25861683      -0.88339337      -0.10150404       0.09252774
Si       1.20589837       0.98575127       5.24529118      -0.10150404       0.88339337       0.09252774
Si       3.34904093       3.56918804       1.27194249       0.10150404      -0.88339337       0.09252774
Si       3.26322092       1.07157128      -0.71473185       0.88339337       0.10150404       0.09252774
Si       3.56918804       3.34904093       6.67475487      -0.88339337       0.10150404      -0.09252774
Si       3.48336803       1.29171838       4.68808053      -0.10150404      -0.88339337      -0.09252774
12
Lattice="4.578947762754926 -1.1968260300702038e-59 1.2844161127731261e-47 1.2050239903939607e-59 4.578947762754927 -3.012884705636554e-16 -4.3324516605067774e-47 -3.974436080250986e-16 7.863583183450283" Properties=species:S:1:pos:R:3:forces:R:3 cutoff=-1.0 nneightol=1.2 n_minim_iter=11 energy=-1953.2458241449763 stress="-0.11562258410475876 -2.613797987586268e-16 7.423421769446527e-16 -2.613797987586268e-16 -0.11562258410475791 -2.100947193067528e-16 7.423421769446527e-16 -2.100947193067528e-16 -0.07095544622975723" free_energy=-1953.2458241449763 pbc="T T T"
Si       1.08292749       1.08292749      -0.00000000       0.15103255       0.15103255      -0.00000000
Si      -1.08292749      -1.08292749       3.93179159      -0.15103255      -0.15103255      -0.00000000
Si       1.20654639       3.37240137       5.89768739      -0.15103255       0.15103255       0.00000000
Si       3.37240137       1.20654639       1.96589580       0.15103255      -0.15103255      -0.00000000
Si       1.10492992       3.37557439       0.64949870       0.06394747       0.07061657       0.04251596
Si       1.08610051       1.18454395       2.61539450       0.07061657      -0.06394747       0.04251596
Si       1.20337336       3.47401784       3.28229289      -0.07061657      -0.06394747      -0.04251596
Si       1.18454395       1.08610051       5.24818869      -0.06394747       0.07061657      -0.04251596
Si       3.39440380       3.49284725       1.31639709       0.06394747      -0.07061657      -0.04251596
Si       3.37557439       1.10492992      -0.64949870       0.07061657       0.06394747      -0.04251596
Si       3.49284725       3.39440380       6.54718609      -0.07061657       0.06394747       0.04251596
Si       3.47401784       1.20337336       4.58129029      -0.06394747      -0.07061657       0.04251596
12
Lattice="4.638264365960216 -1.21229980902092e-59 1.4675768017943495e-47 1.2206358436770875e-59 4.638264365960217 -2.438383279104965e-16 -4.017761477409213e-47 -3.17448218059555e-16 7.663741838393556" Properties=species:S:1:pos:R:3:forces:R:3 cutoff=-1.0 nneightol=1.2 n_minim_iter=12 energy=-1953.3974707181612 stress="-0.09987791762864998 4.982990433629902e-17 -3.333216573847029e-16 4.982990433629902e-17 -0.09987791762864845 -9.730298887290821e-16 -3.333216573847029e-16 -9.730298887290821e-16 -0.08903952433889242" free_energy=-1953.3974707181612 pbc="T T T"
Si       1.14538737       1.14538737      -0.00000000       0.22040545       0.22040545      -0.00000000
Si      -1.14538737      -1.14538737       3.83187092      -0.22040545      -0.22040545      -0.00000000
Si       1.17374481       3.46451955       5.74780638      -0.22040545       0.22040545       0.00000000
Si       3.46451955       1.17374481       1.91593546       0.22040545      -0.22040545      -0.00000000
Si       1.13285219       3.49054096       0.63127338       0.04278820      -0.22093449       0.05855556
Si       1.17140878       1.18627998       2.54720884      -0.22093449      -0.04278820       0.05855556
Si       1.14772340       3.50541217       3.20059754       0.22093449      -0.04278820      -0.05855556
Si       1.18627998       1.17140878       5.11653300      -0.04278820      -0.22093449      -0.05855556
Si       3.45198438       3.46685558       1.28466208       0.04278820       0.22093449      -0.05855556
Si       3.49054096       1.13285219      -0.63127338      -0.22093449       0.04278820      -0.05855556
Si       3.46685558       3.45198438       6.37907976       0.22093449       0.04278820       0.05855556
Si       3.50541217       1.14772340       4.46314430      -0.04278820       0.22093449       0.05855556
12
Lattice="4.651701435288633 -1.2158122464050154e-59 1.5044519011594415e-47 1.2241639612596452e-59 4.651701435288634 -2.257280280859739e-16 -3.954483892442976e-47 -2.9076870925396993e-16 7.6195302747115745" Properties=species:S:1:pos:R:3:forces:R:3 cutoff=-1.0 nneightol=1.2 n_minim_iter=13 energy=-1953.4232237779063 stress="-0.0956892878725856 -1.602637463789078e-16 6.107530166624764e-16 -1.602637463789078e-16 -0.09568928787258299 -4.3836848274230665e-16 6.107530166624764e-16 -4.3836848274230665e-16 -0.09413922932788774" free_energy=-1953.4232237779063 pbc="T T T"
Si       1.15703761       1.15703761      -0.00000000       0.08058816       0.08058816      -0.00000000
Si      -1.15703761      -1.15703761       3.80976514      -0.08058816      -0.08058816      -0.00000000
Si       1.16881311       3.48288833       5.71464771      -0.08058816       0.08058816      -0.00000000
Si       3.48288833       1.16881311       1.90488257       0.08058816      -0.08058816      -0.00000000
Si       1.14546429       3.49307965       0.64551401       0.02820626      -0.07910072      -0.08499218
Si       1.16722893       1.18038643       2.55039658      -0.07910072      -0.02820626      -0.08499218
Si       1.15862178       3.50623714       3.16425113       0.07910072      -0.02820626       0.08499218
Si       1.18038643       1.16722893       5.06913370      -0.02820626      -0.07910072       0.08499218
Si       3.47131501       3.48447250       1.25936856       0.02820626       0.07910072       0.08499218
Si       3.49307965       1.14546429      -0.64551401      -0.07910072       0.02820626       0.08499218
Si       3.48447250       3.47131501       6.36016172       0.07910072       0.02820626      -0.08499218
Si       3.50623714       1.15862178       4.45527915      -0.02820626       0.07910072      -0.08499218
12
Lattice="4.6514683432441695 -1.215751319599838e-59 1.5038325035852095e-47 1.224102764579126e-59 4.65146834324417 -2.260718301020286e-16 -3.9555473025973506e-47 -2.9128023219198825e-16 7.620293945990706" Properties=species:S:1:pos:R:3:forces:R:3 cutoff=-1.0 nneightol=1.2 n_minim_iter=14 energy=-1953.4308837149238 stress="-0.09562372361327426 1.1178059621386086e-16 3.5823660955285525e-16 1.1178059621386086e-16 -0.0956237236132749 2.0807351945833135e-16 3.5823660955285525e-16 2.0807351945833135e-16 -0.09397832923947834" free_energy=-1953.4308837149238 pbc="T T T"
Si       1.16461677       1.16461677      -0.00000000       0.01867256       0.01867256      -0.00000000
Si      -1.16461677      -1.16461677       3.81014697      -0.01867256      -0.01867256       0.00000000
Si       1.16111740       3.49035094       5.71522046      -0.01867256       0.01867256       0.00000000
Si       3.49035094       1.16111740       1.90507349       0.01867256      -0.01867256       0.00000000
Si       1.15760677       3.49340251       0.63896701       0.00857861      -0.03007734      -0.03149521
Si       1.16766834       1.16812740       2.54404050      -0.03007734      -0.00857861      -0.03149521
Si       1.15806583       3.49386157       3.17117996       0.03007734      -0.00857861       0.03149521
Si       1.16812740       1.16766834       5.07625345      -0.00857861      -0.03007734       0.03149521
Si       3.48334094       3.48380000       1.26610647       0.00857861       0.03007734       0.03149521
Si       3.49340251       1.15760677      -0.63896701      -0.03007734       0.00857861       0.03149521
Si       3.48380000       3.48334094       6.35418747       0.03007734       0.00857861      -0.03149521
Si       3.49386157       1.15806583       4.44911398      -0.00857861       0.03007734      -0.03149521
12
Lattice="4.654162633500208 -1.2164555654811374e-59 1.5109910155769015e-47 1.2248101337980134e-59 4.654162633500209 -2.2209944895276215e-16 -3.9432594218441013e-47 -2.853698580979218e-16 7.611473738115312" Properties=species:S:1:pos:R:3:forces:R:3 cutoff=-1.0 nneightol=1.2 n_minim_iter=15 energy=-1953.4321491807937 stress="-0.0949215054863022 -7.541823359007488e-17 -2.1009365071520862e-16 -7.541823359007488e-17 -0.09492150548630002 -4.646301890817114e-16 -2.1009365071520862e-16 -4.646301890817114e-16 -0.0949715330417506" free_energy=-1953.4321491807937 pbc="T T T"
Si       1.16424678       1.16424678      -0.00000000      -0.00190322      -0.00190322      -0.00000000
Si      -1.16424678      -1.16424678       3.80573687       0.00190322       0.00190322       0.00000000
Si       1.16283453       3.49132810       5.70860530       0.00190322      -0.00190322       0.00000000
Si       3.49132810       1.16283453       1.90286843      -0.00190322       0.00190322      -0.00000000
Si       1.16257848       3.49123487       0.63422555       0.00162537      -0.00032489       0.00051516
Si       1.16415355       1.16450283       2.53709398      -0.00032489      -0.00162537       0.00051516
Si       1.16292776       3.49158414       3.17151132       0.00032489      -0.00162537      -0.00051516
Si       1.16450283       1.16415355       5.07437976      -0.00162537      -0.00032489      -0.00051516
Si       3.48965980       3.49000907       1.26864289       0.00162537       0.00032489      -0.00051516
Si       3.49123487       1.16257848      -0.63422555      -0.00032489       0.00162537      -0.00051516
Si       3.49000907       3.48965980       6.34283085       0.00032489       0.00162537       0.00051516
Si       3.49158414       1.16292776       4.43996242      -0.00162537       0.00032489       0.00051516
