12
Lattice="5.115387556008072 7.230146519993945e-61 2.210441121077715e-47 -4.876425876275493e-61 5.115387556008071 -8.373395031840588e-18 -2.6886825256913564e-47 5.325466552221423e-17 6.300786705026102" Properties=species:S:1:pos:R:3:forces:R:3 cutoff=-1.0 nneightol=1.2 n_minim_iter=7 energy=-1952.1822711958764 stress="-0.18983119182779704 -6.162214902527584e-16 -7.401174435474637e-16 -6.162214902527584e-16 -0.1898311918277975 -1.1306218486065148e-16 -7.401174435474637e-16 -1.1306218486065148e-16 -0.1899610549439651" free_energy=-1952.1822711958764 pbc="T T T"
Si       0.46620444       0.46620444      -0.00000000      -0.00209362      -0.00209362      -0.00000000
Si      -0.46620444      -0.46620444       3.15039335       0.00209362       0.00209362       0.00000000
Si       2.09148934       3.02389822       4.72559003       0.00209362      -0.00209362       0.00000000
Si       3.02389822       2.09148934       1.57519668      -0.00209362       0.00209362      -0.00000000
Si       0.76860244       3.38027564       0.23236876      -0.00124008       0.00225097       0.00297669
Si       0.82258187       1.78909133       1.80756544       0.00225097       0.00124008       0.00297669
Si       1.73511191       4.34678511       2.91802459      -0.00225097       0.00124008      -0.00297669
Si       1.78909133       0.82258187       4.49322126       0.00124008       0.00225097      -0.00297669
Si       3.32629622       4.29280569       1.34282791      -0.00124008      -0.00225097      -0.00297669
Si       3.38027564       0.76860244      -0.23236876       0.00225097      -0.00124008      -0.00297669
Si       4.29280569       3.32629622       4.95795879      -0.00225097      -0.00124008       0.00297669
Si       4.34678511       1.73511191       3.38276212       0.00124008      -0.00225097       0.00297669
