12
Lattice="5.427078664654577 5.03929898693506e-61 2.2873857651722193e-47 -4.997454126538758e-61 5.427078664654577 -1.2580606693636161e-17 -2.726777676451253e-47 -1.8603850224556698e-17 6.530800535727799" Properties=species:S:1:pos:R:3:forces:R:3 cutoff=-1.0 nneightol=1.2 n_minim_iter=5 energy=-1955.0384211934413 stress="-0.07769896016166992 3.5129541450490517e-16 -6.955474249400768e-17 3.5129541450490517e-16 -0.0776989601616715 -7.148559116408444e-16 -6.955474249400768e-17 -7.148559116408444e-16 -0.07787479699263354" free_energy=-1955.0384211934413 pbc="T T T"
Si       0.45371550       0.45371550      -0.00000000       0.00223667       0.00223667      -0.00000000
Si      -0.45371550      -0.45371550       3.26540027      -0.00223667      -0.00223667       0.00000000
Si       2.25982383       3.16725483       4.89810040      -0.00223667       0.00223667      -0.00000000
Si       3.16725483       2.25982383       1.63270013       0.00223667      -0.00223667       0.00000000
Si       0.74051426       3.60493817       0.07814192       0.00026393       0.00288611      -0.00306530
Si       0.89139884       1.97302507       1.71084206       0.00288611      -0.00026393      -0.00306530
Si       1.82214049       4.68656440       3.18725835      -0.00288611      -0.00026393       0.00306530
Si       1.97302507       0.89139884       4.81995848      -0.00026393       0.00288611       0.00306530
Si       3.45405359       4.53567982       1.55455821       0.00026393      -0.00288611       0.00306530
Si       3.60493817       0.74051426      -0.07814192       0.00288611       0.00026393       0.00306530
Si       4.53567982       3.45405359       4.97624232      -0.00288611       0.00026393      -0.00306530
Si       4.68656440       1.82214049       3.34354219      -0.00026393      -0.00288611      -0.00306530
