12
Lattice="5.979431451992522 -5.89800095478385e-62 2.597211257030733e-47 5.8066119331035305e-62 5.979431451992522 2.1723141264636422e-16 -3.2316578207436925e-47 -2.702369377084752e-16 7.531940935314164" Properties=species:S:1:pos:R:3:forces:R:3 cutoff=-1.0 nneightol=1.2 n_minim_iter=5 energy=-1953.7441981350748 stress="0.08005256523676396 -1.3769874281564312e-16 -9.997588363111813e-17 -1.3769874281564312e-16 0.08005256523676386 2.885901795537431e-17 -9.997588363111813e-17 2.885901795537431e-17 0.0800592067440142" free_energy=-1953.7441981350748 pbc="T T T"
Si       0.42735874       0.42735874       0.00000000      -0.00136224      -0.00136224       0.00000000
Si      -0.42735874      -0.42735874       3.76597047       0.00136224       0.00136224       0.00000000
Si       2.56235698       3.41707446       5.64895570       0.00136224      -0.00136224       0.00000000
Si       3.41707446       2.56235698       1.88298523      -0.00136224       0.00136224      -0.00000000
Si       0.77987310       3.93124438      -0.22545346       0.00356636      -0.00115151       0.00130667
Si       0.94152865       2.20984263       1.65753178      -0.00115151      -0.00356636       0.00130667
Si       2.04818707       5.19955835       3.99142392       0.00115151      -0.00356636      -0.00130667
Si       2.20984263       0.94152865       5.87440916      -0.00356636      -0.00115151      -0.00130667
Si       3.76958882       5.03790279       2.10843869       0.00356636       0.00115151      -0.00130667
Si       3.93124438       0.77987310       0.22545346      -0.00115151       0.00356636      -0.00130667
Si       5.03790279       3.76958882       5.42350224       0.00115151       0.00356636       0.00130667
Si       5.19955835       2.04818707       3.54051701      -0.00356636       0.00115151       0.00130667
