12
Lattice="5.952795429707976 -5.872631078348267e-62 2.5704636895426173e-47 6.725241241395344e-62 5.952795429707975 2.1491694319916316e-16 -3.174568074063506e-47 -2.715606271844151e-16 7.444403932129869" Properties=species:S:1:pos:R:3:forces:R:3 cutoff=-1.0 nneightol=1.2 n_minim_iter=5 energy=-1954.1710271856482 stress="0.07516844644662976 -1.2634258632630364e-17 1.1416734043046345e-16 -1.2634258632630364e-17 0.07516844644662984 1.4352571852741557e-17 1.1416734043046345e-16 1.4352571852741557e-17 0.07514974457996378" free_energy=-1954.1710271856482 pbc="T T T"
Si       0.43557386       0.43557386       0.00000000      -0.00138901      -0.00138901       0.00000000
Si      -0.43557386      -0.43557386       3.72220197       0.00138901       0.00138901      -0.00000000
Si       2.54082385       3.41197157       5.58330295       0.00138901      -0.00138901       0.00000000
Si       3.41197157       2.54082385       1.86110098      -0.00138901       0.00138901      -0.00000000
Si       0.77167696       3.92234364      -0.20075876       0.00364623      -0.00109868       0.00135524
Si       0.94594593       2.20472075       1.66034222      -0.00109868      -0.00364623       0.00135524
Si       2.03045178       5.18111847       3.92296073       0.00109868      -0.00364623      -0.00135524
Si       2.20472075       0.94594593       5.78406171      -0.00364623      -0.00109868      -0.00135524
Si       3.74807467       5.00684950       2.06185975       0.00364623       0.00109868      -0.00135524
Si       3.92234364       0.77167696       0.20075876      -0.00109868       0.00364623      -0.00135524
Si       5.00684950       3.74807467       5.38254419       0.00109868       0.00364623       0.00135524
Si       5.18111847       2.03045178       3.52144320      -0.00364623       0.00109868       0.00135524
