12
Lattice="5.473361045949384 5.073513730192495e-61 2.295907280733914e-47 -5.0683013994067045e-61 5.473361045949384 1.5091045405069912e-18 -2.7528158338878857e-47 7.993325501082665e-18 6.60427145090943" Properties=species:S:1:pos:R:3:forces:R:3 cutoff=-1.0 nneightol=1.2 n_minim_iter=5 energy=-1955.4184005748211 stress="-0.060768629007457005 9.490605578976022e-16 2.8993135982612595e-16 9.490605578976022e-16 -0.06076862900745747 1.5373251472412676e-16 2.8993135982612595e-16 1.5373251472412676e-16 -0.06089370739302279" free_energy=-1955.4184005748211 pbc="T T T"
Si       0.45277788       0.45277788       0.00000000       0.00267882       0.00267882      -0.00000000
Si      -0.45277789      -0.45277789       3.30213573      -0.00267882      -0.00267882       0.00000000
Si       2.28390263       3.18945841       4.95320359      -0.00267882       0.00267882       0.00000000
Si       3.18945841       2.28390263       1.65106786       0.00267882      -0.00267882       0.00000000
Si       0.73376915       3.63523859       0.04035641      -0.00157315       0.00280077      -0.00090235
Si       0.89855807       2.00291137       1.69142428       0.00280077       0.00157315      -0.00090235
Si       1.83812245       4.73959189       3.26177931      -0.00280077       0.00157315       0.00090235
Si       2.00291137       0.89855807       4.91284718       0.00157315       0.00280077       0.00090235
Si       3.47044967       4.57480297       1.61071145      -0.00157315      -0.00280077       0.00090235
Si       3.63523859       0.73376915      -0.04035641       0.00280077      -0.00157315       0.00090235
Si       4.57480297       3.47044967       4.99356000      -0.00280077      -0.00157315      -0.00090235
Si       4.73959189       1.83812245       3.34249214       0.00157315      -0.00280077      -0.00090235
