12
Lattice="5.467837655287708 5.063524665918777e-61 2.286339242216325e-47 -5.063415014904359e-61 5.467837655287708 -2.622331518044558e-18 -2.7671133232205344e-47 3.173758446471026e-18 6.617620931216991" Properties=species:S:1:pos:R:3:forces:R:3 cutoff=-1.0 nneightol=1.2 n_minim_iter=1 energy=-1955.3996537678768 stress="-0.06832700276406663 -9.640778313794368e-17 -1.7527093674025685e-17 -9.640778313794368e-17 -0.06832700276406634 4.975143135559792e-17 -1.7527093674025685e-17 4.975143135559792e-17 -0.0679454641196812" free_energy=-1955.3996537678768 pbc="T T T"
Si       0.44790088       0.44790088      -0.00000000      -0.00772975      -0.00772975       0.00000000
Si      -0.44790088      -0.44790088       3.30881047       0.00772975       0.00772975      -0.00000000
Si       2.28601795       3.18181970       4.96321570       0.00772975      -0.00772975       0.00000000
Si       3.18181970       2.28601795       1.65440523      -0.00772975       0.00772975       0.00000000
Si       0.72160323       3.63077782       0.00569855       0.00664218      -0.01218970       0.13363247
Si       0.89685899       2.01231560       1.66010379      -0.01218970      -0.00664218       0.13363247
Si       1.83705983       4.74623442       3.30311191       0.01218970      -0.00664218      -0.13363247
Si       2.01231560       0.89685899       4.95751715      -0.00664218      -0.01218970      -0.13363247
Si       3.45552206       4.57097866       1.64870668       0.00664218       0.01218970      -0.13363247
Si       3.63077782       0.72160323      -0.00569855      -0.01218970       0.00664218      -0.13363247
Si       4.57097866       3.45552206       4.96891425       0.01218970       0.00664218       0.13363247
Si       4.74623442       1.83705983       3.31450902      -0.00664218       0.01218970       0.13363247
12
Lattice="5.48362641150505 5.07831818884419e-61 2.3006346641819955e-47 -5.078209535617092e-61 5.48362641150505 -2.6072525376177853e-18 -2.7419335234620135e-47 3.182922891643535e-18 6.579568161837156" Properties=species:S:1:pos:R:3:forces:R:3 cutoff=-1.0 nneightol=1.2 n_minim_iter=2 energy=-1955.4081195871015 stress="-0.06253050860496161 3.3796866070985184e-16 1.2072618721411417e-17 3.3796866070985184e-16 -0.0625305086049609 2.095382022987915e-16 1.2072618721411417e-17 2.095382022987915e-16 -0.06961342719995903" free_energy=-1955.4081195871015 pbc="T T T"
Si       0.44830589       0.44830589      -0.00000000      -0.01422491      -0.01422491      -0.00000000
Si      -0.44830590      -0.44830590       3.28978408       0.01422491       0.01422491       0.00000000
Si       2.29350731       3.19011910       4.93467612       0.01422491      -0.01422491       0.00000000
Si       3.19011910       2.29350731       1.64489204      -0.01422491       0.01422491       0.00000000
Si       0.72445025       3.63986106       0.02089099       0.04827524       0.06276569       0.06883804
Si       0.89804785       2.01736295       1.66578303       0.06276569      -0.04827524       0.06883804
Si       1.84376535       4.75917616       3.26889309      -0.06276569      -0.04827524      -0.06883804
Si       2.01736295       0.89804785       4.91378513      -0.04827524       0.06276569      -0.06883804
Si       3.46626345       4.58557856       1.62400105       0.04827524      -0.06276569      -0.06883804
Si       3.63986106       0.72445025      -0.02089099       0.06276569       0.04827524      -0.06883804
Si       4.58557856       3.46626345       4.95556711      -0.06276569       0.04827524       0.06883804
Si       4.75917616       1.84376535       3.31067507      -0.04827524      -0.06276569       0.06883804
12
Lattice="5.473828179558574 5.069244165485696e-61 2.294633969568494e-47 -5.06913503342331e-61 5.4738281795585735 -2.6165949314743246e-18 -2.7540842148884333e-47 3.1772355937827264e-18 6.603144288923962" Properties=species:S:1:pos:R:3:forces:R:3 cutoff=-1.0 nneightol=1.2 n_minim_iter=3 energy=-1955.4135782304465 stress="-0.06289920923101704 1.210763564505355e-16 -6.882222884652357e-17 1.210763564505355e-16 -0.06289920923101638 -2.859814069996382e-16 -6.882222884652357e-17 -2.859814069996382e-16 -0.06271646622958307" free_energy=-1955.4135782304465 pbc="T T T"
Si       0.44682919       0.44682919      -0.00000000       0.06754228       0.06754228       0.00000000
Si      -0.44682919      -0.44682919       3.30157214      -0.06754228      -0.06754228       0.00000000
Si       2.29008490       3.18374328       4.95235822      -0.06754228       0.06754228      -0.00000000
Si       3.18374328       2.29008490       1.65078607       0.06754228      -0.06754228       0.00000000
Si       0.72401729       3.63295560       0.03122868       0.07951137       0.00839654       0.00022894
Si       0.89604151       2.01289680       1.68201475       0.00839654      -0.07951137       0.00022894
Si       1.84087258       4.74981089       3.27034347      -0.00839654      -0.07951137      -0.00022894
Si       2.01289680       0.89604151       4.92112954      -0.07951137       0.00839654      -0.00022894
Si       3.46093138       4.57778667       1.61955740       0.07951137      -0.00839654      -0.00022894
Si       3.63295560       0.72401729      -0.03122868       0.00839654       0.07951137      -0.00022894
Si       4.57778667       3.46093138       4.98358689      -0.00839654       0.07951137       0.00022894
Si       4.74981089       1.84087258       3.33280082      -0.07951137      -0.00839654       0.00022894
12
Lattice="5.471070938547804 5.066685774779353e-61 2.2925324608814204e-47 -5.06624301423622e-61 5.471070938547803 -5.930148313311925e-18 -2.758022227746762e-47 -8.379462764343222e-19 6.609801503998883" Properties=species:S:1:pos:R:3:forces:R:3 cutoff=-1.0 nneightol=1.2 n_minim_iter=4 energy=-1955.4181202874527 stress="-0.0609136883760889 3.810740005172197e-16 4.126796510815466e-16 3.810740005172197e-16 -0.06091368837609033 1.0033362415472448e-16 4.126796510815466e-16 1.0033362415472448e-16 -0.06090672752877508" free_energy=-1955.4181202874527 pbc="T T T"
Si       0.45295425       0.45295425      -0.00000000      -0.01049247      -0.01049247       0.00000000
Si      -0.45295425      -0.45295425       3.30490075       0.01049247       0.01049247       0.00000000
Si       2.28258122       3.18848972       4.95735113       0.01049247      -0.01049247       0.00000000
Si       3.18848972       2.28258122       1.65245038      -0.01049247       0.01049247      -0.00000000
Si       0.73253556       3.63168725       0.03983178       0.00648398       0.02973659      -0.00080503
Si       0.89615178       2.00299990       1.69228216       0.02973659      -0.00648398      -0.00080503
Si       1.83938369       4.73853537       3.26506897      -0.02973659      -0.00648398       0.00080503
Si       2.00299990       0.89615178       4.91751935      -0.00648398       0.02973659       0.00080503
Si       3.46807103       4.57491916       1.61261859       0.00648398      -0.02973659       0.00080503
Si       3.63168725       0.73253556      -0.03983178       0.02973659       0.00648398       0.00080503
Si       4.57491916       3.46807103       4.99718291      -0.02973659       0.00648398      -0.00080503
Si       4.73853537       1.83938369       3.34473253      -0.00648398      -0.02973659      -0.00080503
12
Lattice="5.473361045949384 5.073513730192495e-61 2.295907280733914e-47 -5.0683013994067045e-61 5.473361045949384 1.5091045405069912e-18 -2.7528158338878857e-47 7.993325501082665e-18 6.60427145090943" Properties=species:S:1:pos:R:3:forces:R:3 cutoff=-1.0 nneightol=1.2 n_minim_iter=5 energy=-1955.4184005748211 stress="-0.060768629007457005 9.490605578976022e-16 2.8993135982612595e-16 9.490605578976022e-16 -0.06076862900745747 1.5373251472412676e-16 2.8993135982612595e-16 1.5373251472412676e-16 -0.06089370739302279" free_energy=-1955.4184005748211 pbc="T T T"
Si       0.45277788       0.45277788       0.00000000       0.00267882       0.00267882      -0.00000000
Si      -0.45277789      -0.45277789       3.30213573      -0.00267882      -0.00267882       0.00000000
Si       2.28390263       3.18945841       4.95320359      -0.00267882       0.00267882       0.00000000
Si       3.18945841       2.28390263       1.65106786       0.00267882      -0.00267882       0.00000000
Si       0.73376915       3.63523859       0.04035641      -0.00157315       0.00280077      -0.00090235
Si       0.89855807       2.00291137       1.69142428       0.00280077       0.00157315      -0.00090235
Si       1.83812245       4.73959189       3.26177931      -0.00280077       0.00157315       0.00090235
Si       2.00291137       0.89855807       4.91284718       0.00157315       0.00280077       0.00090235
Si       3.47044967       4.57480297       1.61071145      -0.00157315      -0.00280077       0.00090235
Si       3.63523859       0.73376915      -0.04035641       0.00280077      -0.00157315       0.00090235
Si       4.57480297       3.47044967       4.99356000      -0.00280077      -0.00157315      -0.00090235
Si       4.73959189       1.83812245       3.34249214       0.00157315      -0.00280077      -0.00090235
