12
Lattice="5.828727564755251 8.294990291261173e-63 2.454668208053826e-47 -9.033515212626188e-63 5.828727564755251 5.535596040060953e-17 -2.954701094879722e-47 -7.132839059546671e-17 7.117635956119743" Properties=species:S:1:pos:R:3:forces:R:3 cutoff=-1.0 nneightol=1.2 n_minim_iter=5 energy=-1955.5358835347567 stress="0.046469342423569635 -6.103974372139668e-18 -2.4692984029030415e-17 -6.103974372139668e-18 0.046469342423569954 4.409711234381376e-17 -2.4692984029030415e-17 4.409711234381376e-17 0.046453765690527386" free_energy=-1955.5358835347567 pbc="T T T"
Si       0.45906935       0.45906935       0.00000000      -0.00169260      -0.00169260      -0.00000000
Si      -0.45906936      -0.45906936       3.55881798       0.00169260       0.00169260      -0.00000000
Si       2.45529442       3.37343314       5.33822697       0.00169260      -0.00169260       0.00000000
Si       3.37343314       2.45529442       1.77940899      -0.00169260       0.00169260       0.00000000
Si       0.74271271       3.86724745      -0.11669763       0.00412964      -0.00111370       0.00046967
Si       0.95288367       2.17165107       1.66271136      -0.00111370      -0.00412964       0.00046967
Si       1.96148011       5.08601485       3.67551561       0.00111370      -0.00412964      -0.00046967
Si       2.17165107       0.95288367       5.45492459      -0.00412964      -0.00111370      -0.00046967
Si       3.65707649       4.87584389       1.89610662       0.00412964       0.00111370      -0.00046967
Si       3.86724745       0.74271271       0.11669763      -0.00111370       0.00412964      -0.00046967
Si       4.87584389       3.65707649       5.22152934       0.00111370       0.00412964       0.00046967
Si       5.08601485       1.96148011       3.44212035      -0.00412964       0.00111370       0.00046967
