12
Lattice="5.924578138392437 -5.8839615796289885e-62 2.5429453438636107e-47 3.0643993432516353e-62 5.924578138392437 2.1500046863415004e-16 -3.118626808988879e-47 -3.4044364932299665e-17 7.358911892737352" Properties=species:S:1:pos:R:3:forces:R:3 cutoff=-1.0 nneightol=1.2 n_minim_iter=5 energy=-1954.5685771471553 stress="0.06942472045637282 -3.034100480038565e-17 5.4091020766600234e-18 -3.034100480038565e-17 0.069424720456373 -4.494086881050967e-17 5.4091020766600234e-18 -4.494086881050967e-17 0.06939423672409208" free_energy=-1954.5685771471553 pbc="T T T"
Si       0.44319182       0.44319182       0.00000000      -0.00140116      -0.00140116       0.00000000
Si      -0.44319183      -0.44319183       3.67945595       0.00140116       0.00140116      -0.00000000
Si       2.51909724       3.40548089       5.51918392       0.00140116      -0.00140116       0.00000000
Si       3.40548089       2.51909724       1.83972797      -0.00140116       0.00140116      -0.00000000
Si       0.76365390       3.91184357      -0.17715804       0.00382530      -0.00105123       0.00122545
Si       0.94955450       2.19863517       1.66256993      -0.00105123      -0.00382530       0.00122545
Si       2.01273457       5.16092424       3.85661399       0.00105123      -0.00382530      -0.00122545
Si       2.19863517       0.94955450       5.69634196      -0.00382530      -0.00105123      -0.00122545
Si       3.72594297       4.97502364       2.01688602       0.00382530       0.00105123      -0.00122545
Si       3.91184357       0.76365390       0.17715804      -0.00105123       0.00382530      -0.00122545
Si       4.97502364       3.72594297       5.34202588       0.00105123       0.00382530       0.00122545
Si       5.16092424       2.01273457       3.50229790      -0.00382530       0.00105123       0.00122545
