12
Lattice="5.9372319698701626 -3.5294508967465566e-62 2.532824811927811e-47 3.4766666112586017e-62 5.9372319698701626 1.2373242153581887e-16 -3.1259466854201743e-47 -1.5270734523660722e-16 7.327577694826886" Properties=species:S:1:pos:R:3:forces:R:3 cutoff=-1.0 nneightol=1.2 n_minim_iter=1 energy=-1954.5616235785249 stress="0.07255296336690814 8.60154998785229e-17 1.16361646510669e-16 8.60154998785229e-17 0.07255296336690821 -2.628592541633576e-16 1.16361646510669e-16 -2.628592541633576e-16 0.07076161859860546" free_energy=-1954.5616235785249 pbc="T T T"
Si       0.45308822       0.45308822       0.00000000      -0.00598196      -0.00598196       0.00000000
Si      -0.45308823      -0.45308823       3.66378885       0.00598196       0.00598196       0.00000000
Si       2.51552776       3.42170421       5.49568327       0.00598196      -0.00598196       0.00000000
Si       3.42170421       2.51552776       1.83189442      -0.00598196       0.00598196      -0.00000000
Si       0.76150848       3.92759584      -0.15616538       0.02775581      -0.00722451      -0.06246510
Si       0.95897986       2.20710749       1.67572904      -0.00722451      -0.02775581      -0.06246510
Si       2.00963612       5.17572348       3.81995423       0.00722451      -0.02775581       0.06246510
Si       2.20710749       0.95897986       5.65184866      -0.02775581      -0.00722451       0.06246510
Si       3.73012447       4.97825211       1.98805981       0.02775581       0.00722451       0.06246510
Si       3.92759584       0.76150848       0.15616538      -0.00722451       0.02775581       0.06246510
Si       4.97825211       3.73012447       5.33951789       0.00722451       0.02775581      -0.06246510
Si       5.17572348       2.00963612       3.50762346      -0.02775581       0.00722451      -0.06246510
12
Lattice="5.9297365717137875 -3.554440701350091e-62 2.5472234339361507e-47 3.5057383798513576e-62 5.9297365717137875 2.107710379185062e-16 -3.110536469645312e-47 -3.886141367423518e-17 7.346114040940955" Properties=species:S:1:pos:R:3:forces:R:3 cutoff=-1.0 nneightol=1.2 n_minim_iter=2 energy=-1954.562371969937 stress="0.07151966467148152 -5.2397259410568455e-17 -9.657482854300518e-17 -5.2397259410568455e-17 0.07151966467148185 -4.3210652916649654e-16 -9.657482854300518e-17 -4.3210652916649654e-16 0.07201651333977431" free_energy=-1954.562371969937 pbc="T T T"
Si       0.45246730       0.45246730       0.00000000      -0.00159016      -0.00159016      -0.00000000
Si      -0.45246730      -0.45246730       3.67305702       0.00159016       0.00159016      -0.00000000
Si       2.51240099       3.41733558       5.50958553       0.00159016      -0.00159016       0.00000000
Si       3.41733558       2.51240099       1.83652851      -0.00159016       0.00159016      -0.00000000
Si       0.76077417       3.92257839      -0.15707333       0.03037652      -0.01445592      -0.06755139
Si       0.95771011       2.20409411       1.67945518      -0.01445592      -0.03037652      -0.06755139
Si       2.00715817       5.16896240       3.83013035       0.01445592      -0.03037652       0.06755139
Si       2.20409411       0.95771011       5.66665886      -0.03037652      -0.01445592       0.06755139
Si       3.72564245       4.97202646       1.99360184       0.03037652       0.01445592       0.06755139
Si       3.92257839       0.76077417       0.15707333      -0.01445592       0.03037652       0.06755139
Si       4.97202646       3.72564245       5.35251220       0.01445592       0.03037652      -0.06755139
Si       5.16896240       2.00715817       3.51598369      -0.03037652       0.01445592      -0.06755139
12
Lattice="5.925731298902536 -3.5407862346012967e-62 2.5438815195817215e-47 3.474816060025815e-62 5.925731298902536 2.195649387196337e-16 -3.1168420918259383e-47 -2.8256312748805997e-17 7.356048050127515" Properties=species:S:1:pos:R:3:forces:R:3 cutoff=-1.0 nneightol=1.2 n_minim_iter=3 energy=-1954.5667573603043 stress="0.0701055895581908 -2.3836766013487475e-16 -1.2739008862178668e-16 -2.3836766013487475e-16 0.0701055895581917 1.2856804030397086e-16 -1.2739008862178668e-16 1.2856804030397086e-16 0.0700667111364721" free_energy=-1954.5667573603043 pbc="T T T"
Si       0.45164819       0.45164819       0.00000000      -0.04376464      -0.04376464       0.00000000
Si      -0.45164819      -0.45164819       3.67802403       0.04376464       0.04376464      -0.00000000
Si       2.51121745       3.41451384       5.51703604       0.04376464      -0.04376464       0.00000000
Si       3.41451384       2.51121745       1.83901201      -0.04376464       0.04376464       0.00000000
Si       0.76608985       3.91742989      -0.17039812      -0.01851859       0.00070195      -0.00734332
Si       0.95456424       2.19677579       1.66861389       0.00070195       0.01851859      -0.00734332
Si       2.00830141       5.15964144       3.84842215      -0.00070195       0.01851859       0.00734332
Si       2.19677579       0.95456424       5.68743416       0.01851859       0.00070195       0.00734332
Si       3.72895550       4.97116706       2.00941013      -0.01851859      -0.00070195       0.00734332
Si       3.91742989       0.76608985       0.17039812       0.00070195      -0.01851859       0.00734332
Si       4.97116706       3.72895550       5.34663792      -0.00070195      -0.01851859      -0.00734332
Si       5.15964144       2.00830141       3.50762590       0.01851859      -0.00070195      -0.00734332
12
Lattice="5.925657616855111 -3.581769081124087e-62 2.5438174591688495e-47 3.5568210499940416e-62 5.925657616855111 2.1957039907386136e-16 -3.1169613930459957e-47 -2.825596140263936e-17 7.356230987477637" Properties=species:S:1:pos:R:3:forces:R:3 cutoff=-1.0 nneightol=1.2 n_minim_iter=4 energy=-1954.5681346040826 stress="0.06959960043939868 3.0708079120411345e-16 -8.570856400302619e-17 3.0708079120411345e-16 0.06959960043939913 -3.0609177560529064e-16 -8.570856400302619e-17 -3.0609177560529064e-16 0.06954673672427747" free_energy=-1954.5681346040826 pbc="T T T"
Si       0.44502347       0.44502347       0.00000000       0.00286318       0.00286318       0.00000000
Si      -0.44502348      -0.44502348       3.67811549      -0.00286318      -0.00286318      -0.00000000
Si       2.51780533       3.40785228       5.51717324      -0.00286318       0.00286318       0.00000000
Si       3.40785228       2.51780533       1.83905775       0.00286318      -0.00286318      -0.00000000
Si       0.76517941       3.91667543      -0.17563445      -0.00691544      -0.02595892       0.00106410
Si       0.95384662       2.19764940       1.66342330      -0.02595892       0.00691544       0.00106410
Si       2.00898218       5.16047820       3.85374994       0.02595892       0.00691544      -0.00106410
Si       2.19764940       0.95384662       5.69280769       0.00691544      -0.02595892      -0.00106410
Si       3.72800822       4.97181099       2.01469219      -0.00691544       0.02595892      -0.00106410
Si       3.91667543       0.76517941       0.17563445      -0.02595892      -0.00691544      -0.00106410
Si       4.97181099       3.72800822       5.34153879       0.02595892      -0.00691544       0.00106410
Si       5.16047820       2.00898218       3.50248105       0.00691544       0.02595892       0.00106410
12
Lattice="5.924578138392437 -5.8839615796289885e-62 2.5429453438636107e-47 3.0643993432516353e-62 5.924578138392437 2.1500046863415004e-16 -3.118626808988879e-47 -3.4044364932299665e-17 7.358911892737352" Properties=species:S:1:pos:R:3:forces:R:3 cutoff=-1.0 nneightol=1.2 n_minim_iter=5 energy=-1954.5685771471553 stress="0.06942472045637282 -3.034100480038565e-17 5.4091020766600234e-18 -3.034100480038565e-17 0.069424720456373 -4.494086881050967e-17 5.4091020766600234e-18 -4.494086881050967e-17 0.06939423672409208" free_energy=-1954.5685771471553 pbc="T T T"
Si       0.44319182       0.44319182       0.00000000      -0.00140116      -0.00140116       0.00000000
Si      -0.44319183      -0.44319183       3.67945595       0.00140116       0.00140116      -0.00000000
Si       2.51909724       3.40548089       5.51918392       0.00140116      -0.00140116       0.00000000
Si       3.40548089       2.51909724       1.83972797      -0.00140116       0.00140116      -0.00000000
Si       0.76365390       3.91184357      -0.17715804       0.00382530      -0.00105123       0.00122545
Si       0.94955450       2.19863517       1.66256993      -0.00105123      -0.00382530       0.00122545
Si       2.01273457       5.16092424       3.85661399       0.00105123      -0.00382530      -0.00122545
Si       2.19863517       0.94955450       5.69634196      -0.00382530      -0.00105123      -0.00122545
Si       3.72594297       4.97502364       2.01688602       0.00382530       0.00105123      -0.00122545
Si       3.91184357       0.76365390       0.17715804      -0.00105123       0.00382530      -0.00122545
Si       4.97502364       3.72594297       5.34202588       0.00105123       0.00382530       0.00122545
Si       5.16092424       2.01273457       3.50229790      -0.00382530       0.00105123       0.00122545
