12
Lattice="5.564530692499121 9.071147792859966e-64 2.299556607748608e-47 -8.010186637504715e-64 5.564530692499121 -2.567343153297595e-17 -2.7872292029719084e-47 3.1118058963231776e-17 6.744614328999631" Properties=species:S:1:pos:R:3:forces:R:3 cutoff=-1.0 nneightol=1.2 n_minim_iter=1 energy=-1955.911755406189 stress="-0.032361482189859604 3.2665572262452697e-16 3.4264150635749675e-16 3.2665572262452697e-16 -0.03236148218986 4.234633695540651e-17 3.4264150635749675e-16 4.234633695540651e-17 -0.033607565038078685" free_energy=-1955.911755406189 pbc="T T T"
Si       0.45059117       0.45059117      -0.00000000      -0.01516387      -0.01516387      -0.00000000
Si      -0.45059118      -0.45059118       3.37230716       0.01516387       0.01516387       0.00000000
Si       2.33167417       3.23285652       5.05846075       0.01516387      -0.01516387       0.00000000
Si       3.23285652       2.33167417       1.68615358      -0.01516387       0.01516387       0.00000000
Si       0.71925980       3.69581321      -0.04018993      -0.00059029      -0.00859100       0.08924413
Si       0.91354787       2.06300554       1.64596365      -0.00859100       0.00059029       0.08924413
Si       1.86871747       4.84527089       3.41249710       0.00859100       0.00059029      -0.08924413
Si       2.06300554       0.91354787       5.09865068       0.00059029      -0.00859100      -0.08924413
Si       3.50152514       4.65098282       1.72634352      -0.00059029       0.00859100      -0.08924413
Si       3.69581321       0.71925980       0.04018993      -0.00859100      -0.00059029      -0.08924413
Si       4.65098282       3.50152514       5.01827081       0.00859100      -0.00059029       0.08924413
Si       4.84527089       1.86871747       3.33211723       0.00059029       0.00859100       0.08924413
12
Lattice="5.559831936404653 -6.115367697568852e-63 2.314239628753675e-47 6.332287138182002e-63 5.559831936404653 -2.1704163985745923e-18 -2.770407796117398e-47 6.131986833196435e-17 6.756019238215863" Properties=species:S:1:pos:R:3:forces:R:3 cutoff=-1.0 nneightol=1.2 n_minim_iter=2 energy=-1955.9123204535235 stress="-0.03307654665598851 -2.6187778838624986e-16 6.428743773038861e-16 -2.6187778838624986e-16 -0.03307654665598851 -1.2222126362531418e-16 6.428743773038861e-16 -1.2222126362531418e-16 -0.03163015766909015" free_energy=-1955.9123204535235 pbc="T T T"
Si       0.45006313       0.45006313      -0.00000000       0.00448198       0.00448198       0.00000000
Si      -0.45006314      -0.45006314       3.37800962      -0.00448198      -0.00448198      -0.00000000
Si       2.32985283       3.22997910       5.06701443      -0.00448198       0.00448198       0.00000000
Si       3.22997910       2.32985283       1.68900481       0.00448198      -0.00448198       0.00000000
Si       0.71864670       3.69260883      -0.03938731       0.00556669      -0.02614653       0.07786082
Si       0.91269286       2.06126926       1.64961750      -0.02614653      -0.00556669       0.07786082
Si       1.86722310       4.84118523       3.41739693       0.02614653      -0.00556669      -0.07786082
Si       2.06126926       0.91269286       5.10640174      -0.00556669      -0.02614653      -0.07786082
Si       3.49856267       4.64713907       1.72839212       0.00556669       0.02614653      -0.07786082
Si       3.69260883       0.71864670       0.03938731      -0.02614653       0.00556669      -0.07786082
Si       4.64713907       3.49856267       5.02762712       0.02614653       0.00556669       0.07786082
Si       4.84118523       1.86722310       3.33862231      -0.00556669       0.02614653       0.07786082
12
Lattice="5.564391037238423 7.75020333498442e-61 2.3180160832002577e-47 -7.893436777668902e-61 5.564391037238423 -2.3627786097452463e-19 -2.76348594440606e-47 6.369902234697338e-17 6.744952886331821" Properties=species:S:1:pos:R:3:forces:R:3 cutoff=-1.0 nneightol=1.2 n_minim_iter=3 energy=-1955.9169201410232 stress="-0.030684484202258343 4.2653676003533665e-17 -2.598572418063381e-16 4.2653676003533665e-17 -0.03068448420225911 3.9976503700527066e-16 -2.598572418063381e-16 3.9976503700527066e-16 -0.03081792220155012" free_energy=-1955.9169201410232 pbc="T T T"
Si       0.44956164       0.44956164      -0.00000000       0.02931688       0.02931688      -0.00000000
Si      -0.44956164      -0.44956164       3.37247644      -0.02931688      -0.02931688       0.00000000
Si       2.33263388       3.23175715       5.05871466      -0.02931688       0.02931688       0.00000000
Si       3.23175715       2.33263388       1.68623822       0.02931688      -0.02931688       0.00000000
Si       0.71961833       3.69292934      -0.02613689       0.04194156       0.01219658       0.00360557
Si       0.91073382       2.06257718       1.66010133       0.01219658      -0.04194156       0.00360557
Si       1.87146170       4.84477270       3.39861333      -0.01219658      -0.04194156      -0.00360557
Si       2.06257718       0.91073382       5.08485155      -0.04194156       0.01219658      -0.00360557
Si       3.50181385       4.65365721       1.71237511       0.04194156      -0.01219658      -0.00360557
Si       3.69292934       0.71961833       0.02613689       0.01219658       0.04194156      -0.00360557
Si       4.65365721       3.50181385       5.03257778      -0.01219658       0.04194156       0.00360557
Si       4.84477270       1.87146170       3.34633956      -0.04194156      -0.01219658       0.00360557
12
Lattice="5.562860562229523 5.2985829916253706e-61 2.3169266389297986e-47 -5.5116175875153734e-61 5.562860562229523 2.8500124794899977e-18 -2.7655921082719607e-47 6.743320028897549e-17 6.748664790220793" Properties=species:S:1:pos:R:3:forces:R:3 cutoff=-1.0 nneightol=1.2 n_minim_iter=4 energy=-1955.9182663406282 stress="-0.0301517443328025 -4.719315680897317e-16 2.577120983150219e-16 -4.719315680897317e-16 -0.03015174433280238 7.832992496851482e-18 2.577120983150219e-16 7.832992496851482e-18 -0.03007204238619904" free_energy=-1955.9182663406282 pbc="T T T"
Si       0.45274026       0.45274026       0.00000000      -0.00951116      -0.00951116       0.00000000
Si      -0.45274027      -0.45274027       3.37433240       0.00951116       0.00951116      -0.00000000
Si       2.32869001       3.23417054       5.06149859       0.00951116      -0.00951116       0.00000000
Si       3.23417054       2.32869001       1.68716620      -0.00951116       0.00951116      -0.00000000
Si       0.72454868       3.69252392      -0.02191860       0.00185419       0.01932321       0.00274860
Si       0.91109364       2.05688160       1.66524760       0.01932321      -0.00185419       0.00274860
Si       1.87033664       4.83831188       3.39625100      -0.01932321      -0.00185419      -0.00274860
Si       2.05688160       0.91109364       5.08341719      -0.00185419       0.01932321      -0.00274860
Si       3.50597896       4.65176692       1.70908480       0.00185419      -0.01932321      -0.00274860
Si       3.69252392       0.72454868       0.02191860       0.01932321       0.00185419      -0.00274860
Si       4.65176692       3.50597896       5.03957999      -0.01932321       0.00185419       0.00274860
Si       4.83831188       1.87033664       3.35241379      -0.00185419      -0.01932321       0.00274860
12
Lattice="5.56414238674421 5.317592880168376e-61 2.318482738259953e-47 -5.530332711202907e-61 5.56414238674421 9.638577546235982e-18 -2.7630537977215615e-47 7.559455508534772e-17 6.745555736951354" Properties=species:S:1:pos:R:3:forces:R:3 cutoff=-1.0 nneightol=1.2 n_minim_iter=5 energy=-1955.9183946818127 stress="-0.030070519539288423 6.537184618263115e-17 5.183896031214288e-16 6.537184618263115e-17 -0.030070519539288333 -2.4809736998511144e-16 5.183896031214288e-16 -2.4809736998511144e-16 -0.030041751868307556" free_energy=-1955.9183946818127 pbc="T T T"
Si       0.45252491       0.45252491       0.00000000       0.00253800       0.00253800      -0.00000000
Si      -0.45252492      -0.45252492       3.37277787      -0.00253800      -0.00253800      -0.00000000
Si       2.32954627       3.23459611       5.05916680      -0.00253800       0.00253800       0.00000000
Si       3.23459611       2.32954627       1.68638893       0.00253800      -0.00253800      -0.00000000
Si       0.72530976       3.69468503      -0.02130830      -0.00179413       0.00106508       0.00026267
Si       0.91261384       2.05676143       1.66508064       0.00106508       0.00179413       0.00026267
Si       1.86945735       4.83883262       3.39408617      -0.00106508       0.00179413      -0.00026267
Si       2.05676143       0.91261384       5.08047510       0.00179413       0.00106508      -0.00026267
Si       3.50738095       4.65152854       1.70769723      -0.00179413      -0.00106508      -0.00026267
Si       3.69468503       0.72530976       0.02130830       0.00106508      -0.00179413      -0.00026267
Si       4.65152854       3.50738095       5.03785851      -0.00106508      -0.00179413       0.00026267
Si       4.83883262       1.86945735       3.35146957       0.00179413      -0.00106508       0.00026267
