12
Lattice="5.3234338346072105 4.951254946464723e-61 2.256752297697604e-47 -3.6797791773052964e-62 5.3234338346072105 -2.723315647681139e-17 -2.682413399980542e-47 -1.8107728517821376e-18 6.399717852202342" Properties=species:S:1:pos:R:3:forces:R:3 cutoff=-1.0 nneightol=1.2 n_minim_iter=5 energy=-1954.5538365082175 stress="-0.09906110799832982 -2.2359770828062154e-16 2.139333854938195e-16 -2.2359770828062154e-16 -0.0990611079983306 8.551022509575042e-16 2.139333854938195e-16 8.551022509575042e-16 -0.09943862683023104" free_energy=-1954.5538365082175 pbc="T T T"
Si       0.44958786       0.44958786      -0.00000000      -0.00168623      -0.00168623      -0.00000000
Si      -0.44958786      -0.44958786       3.19985893       0.00168623       0.00168623      -0.00000000
Si       2.21212906       3.11130477       4.79978839       0.00168623      -0.00168623       0.00000000
Si       3.11130477       2.21212906       1.59992946      -0.00168623       0.00168623      -0.00000000
Si       0.74015797       3.53491728       0.11283667       0.00087802       0.00388574      -0.00253049
Si       0.87320036       1.92155894       1.71276613       0.00388574      -0.00087802      -0.00253049
Si       1.78851655       4.58327586       3.08702226      -0.00388574      -0.00087802       0.00253049
Si       1.92155894       0.87320036       4.68695172      -0.00087802       0.00388574       0.00253049
Si       3.40187489       4.45023347       1.48709280       0.00087802      -0.00388574       0.00253049
Si       3.53491728       0.74015797      -0.11283667       0.00388574       0.00087802       0.00253049
Si       4.45023347       3.40187489       4.91262506      -0.00388574       0.00087802      -0.00253049
Si       4.58327586       1.78851655       3.31269559      -0.00087802      -0.00388574      -0.00253049
