12
Lattice="5.993850488639895 -5.913133262213645e-62 2.5881915855374757e-47 5.819690403216424e-62 5.993850488639894 2.163991758531656e-16 -3.236721947528075e-47 -2.706229190392316e-16 7.4957462713309315" Properties=species:S:1:pos:R:3:forces:R:3 cutoff=-1.0 nneightol=1.2 n_minim_iter=1 energy=-1953.7360447762449 stress="0.08360666435335265 3.1126512223296517e-17 -1.983026805219288e-16 3.1126512223296517e-17 0.0836066643533524 2.259248834220727e-16 -1.983026805219288e-16 2.259248834220727e-16 0.0818247543598792" free_energy=-1953.7360447762449 pbc="T T T"
Si       0.43857791       0.43857791       0.00000000      -0.00542740      -0.00542740       0.00000000
Si      -0.43857792      -0.43857792       3.74787314       0.00542740       0.00542740       0.00000000
Si       2.55834733       3.43550316       5.62180970       0.00542740      -0.00542740       0.00000000
Si       3.43550316       2.55834733       1.87393657      -0.00542740       0.00542740       0.00000000
Si       0.77699903       3.94939514      -0.20214335       0.03104985      -0.01137054      -0.06406302
Si       0.95246990       2.21992621       1.67179322      -0.01137054      -0.03104985      -0.06406302
Si       2.04445534       5.21685145       3.95001648       0.01137054      -0.03104985       0.06406302
Si       2.21992621       0.95246990       5.82395305      -0.03104985      -0.01137054       0.06406302
Si       3.77392428       5.04138058       2.07607992       0.03104985       0.01137054       0.06406302
Si       3.94939514       0.77699903       0.20214335      -0.01137054       0.03104985       0.06406302
Si       5.04138058       3.77392428       5.41966635       0.01137054       0.03104985      -0.06406302
Si       5.21685145       2.04445534       3.54572979      -0.03104985       0.01137054      -0.06406302
12
Lattice="5.985454210252185 -5.9048500537640395e-62 2.6025482421776587e-47 5.811843452179068e-62 5.9854542102521835 2.170067227656884e-16 -3.221610638262148e-47 -2.702438262722941e-16 7.516790794658005" Properties=species:S:1:pos:R:3:forces:R:3 cutoff=-1.0 nneightol=1.2 n_minim_iter=2 energy=-1953.7369051555145 stress="0.08252647288256268 6.534506208466884e-17 1.628473156053262e-17 6.534506208466884e-17 0.08252647288256232 1.7480319447255265e-16 1.628473156053262e-17 1.7480319447255265e-16 0.08304873502484747" free_energy=-1953.7369051555145 pbc="T T T"
Si       0.43791605       0.43791605       0.00000000      -0.00250226      -0.00250226       0.00000000
Si      -0.43791605      -0.43791605       3.75839540       0.00250226       0.00250226       0.00000000
Si       2.55481105       3.43064315       5.63759310       0.00250226      -0.00250226      -0.00000000
Si       3.43064315       2.55481105       1.87919770      -0.00250226       0.00250226       0.00000000
Si       0.77618234       3.94376326      -0.20327389       0.03434009      -0.01652306      -0.06969519
Si       0.95103615       2.21654476       1.67592381      -0.01652306      -0.03434009      -0.06969519
Si       2.04169095       5.20927187       3.96166928       0.01652306      -0.03434009       0.06969519
Si       2.21654476       0.95103615       5.84086698      -0.03434009      -0.01652306       0.06969519
Si       3.76890944       5.03441805       2.08247159       0.03434009       0.01652306       0.06969519
Si       3.94376326       0.77618234       0.20327389      -0.01652306       0.03434009       0.06969519
Si       5.03441805       3.76890944       5.43431921       0.01652306       0.03434009      -0.06969519
Si       5.20927187       2.04169095       3.55512151      -0.03434009       0.01652306      -0.06969519
12
Lattice="5.980808654219011 -5.900267057916331e-62 2.5984407826661164e-47 5.807037110918843e-62 5.980808654219011 2.173439709449108e-16 -3.2293469918617623e-47 -2.7003407897602e-16 7.528472571041614" Properties=species:S:1:pos:R:3:forces:R:3 cutoff=-1.0 nneightol=1.2 n_minim_iter=3 energy=-1953.7420792274845 stress="0.08083986541866384 -1.1069494744311416e-16 -6.699414882497598e-17 -1.1069494744311416e-16 0.08083986541866327 -1.752154661576295e-16 -6.699414882497598e-17 -1.752154661576295e-16 0.08081953775576778" free_energy=-1953.7420792274845 pbc="T T T"
Si       0.43690667       0.43690667       0.00000000      -0.04504038      -0.04504038      -0.00000000
Si      -0.43690667      -0.43690667       3.76423629       0.04504038       0.04504038      -0.00000000
Si       2.55349766       3.42731099       5.64635443       0.04504038      -0.04504038       0.00000000
Si       3.42731099       2.55349766       1.88211814      -0.04504038       0.04504038       0.00000000
Si       0.78255523       3.93752793      -0.21793946      -0.01921460       0.00136421      -0.00844398
Si       0.94712361       2.20784909       1.66417868       0.00136421       0.01921460      -0.00844398
Si       2.04328071       5.19825342       3.98217575      -0.00136421       0.01921460       0.00844398
Si       2.20784909       0.94712361       5.86429389       0.01921460       0.00136421       0.00844398
Si       3.77295955       5.03368504       2.10005761      -0.01921460      -0.00136421       0.00844398
Si       3.93752793       0.78255523       0.21793946       0.00136421      -0.01921460       0.00844398
Si       5.03368504       3.77295955       5.42841496      -0.00136421      -0.01921460      -0.00844398
Si       5.19825342       2.04328071       3.54629682       0.01921460      -0.00136421      -0.00844398
12
Lattice="5.980273751467967 -5.899225030123355e-62 2.597953752121568e-47 5.807483214106539e-62 5.980273751467967 2.1626455014807992e-16 -3.230256368748931e-47 -2.714186516630476e-16 7.529819392593049" Properties=species:S:1:pos:R:3:forces:R:3 cutoff=-1.0 nneightol=1.2 n_minim_iter=4 energy=-1953.7437070581848 stress="0.08023949943017379 4.5679702706506725e-16 -9.193658577212094e-17 4.5679702706506725e-16 0.08023949943017426 3.541413774809502e-16 -9.193658577212094e-17 3.541413774809502e-16 0.08022819086582036" free_energy=-1953.7437070581848 pbc="T T T"
Si       0.42932285       0.42932285       0.00000000       0.00252333       0.00252333       0.00000000
Si      -0.42932285      -0.42932285       3.76490970      -0.00252333      -0.00252333      -0.00000000
Si       2.56081402       3.41945972       5.64736454      -0.00252333       0.00252333      -0.00000000
Si       3.41945972       2.56081402       1.88245485       0.00252333      -0.00252333      -0.00000000
Si       0.78155599       3.93638789      -0.22390302      -0.00718782      -0.02566321       0.00131213
Si       0.94625101       2.20858089       1.65855182      -0.02566321       0.00718782       0.00131213
Si       2.04388586       5.19871776       3.98881272       0.02566321       0.00718782      -0.00131213
Si       2.20858089       0.94625101       5.87126757       0.00718782      -0.02566321      -0.00131213
Si       3.77169286       5.03402273       2.10635787      -0.00718782       0.02566321      -0.00131213
Si       3.93638789       0.78155599       0.22390302      -0.02566321      -0.00718782      -0.00131213
Si       5.03402273       3.77169286       5.42346152       0.02566321      -0.00718782       0.00131213
Si       5.19871776       2.04388586       3.54100667       0.00718782       0.02566321       0.00131213
12
Lattice="5.979431451992522 -5.89800095478385e-62 2.597211257030733e-47 5.8066119331035305e-62 5.979431451992522 2.1723141264636422e-16 -3.2316578207436925e-47 -2.702369377084752e-16 7.531940935314164" Properties=species:S:1:pos:R:3:forces:R:3 cutoff=-1.0 nneightol=1.2 n_minim_iter=5 energy=-1953.7441981350748 stress="0.08005256523676396 -1.3769874281564312e-16 -9.997588363111813e-17 -1.3769874281564312e-16 0.08005256523676386 2.885901795537431e-17 -9.997588363111813e-17 2.885901795537431e-17 0.0800592067440142" free_energy=-1953.7441981350748 pbc="T T T"
Si       0.42735874       0.42735874       0.00000000      -0.00136224      -0.00136224       0.00000000
Si      -0.42735874      -0.42735874       3.76597047       0.00136224       0.00136224       0.00000000
Si       2.56235698       3.41707446       5.64895570       0.00136224      -0.00136224       0.00000000
Si       3.41707446       2.56235698       1.88298523      -0.00136224       0.00136224      -0.00000000
Si       0.77987310       3.93124438      -0.22545346       0.00356636      -0.00115151       0.00130667
Si       0.94152865       2.20984263       1.65753178      -0.00115151      -0.00356636       0.00130667
Si       2.04818707       5.19955835       3.99142392       0.00115151      -0.00356636      -0.00130667
Si       2.20984263       0.94152865       5.87440916      -0.00356636      -0.00115151      -0.00130667
Si       3.76958882       5.03790279       2.10843869       0.00356636       0.00115151      -0.00130667
Si       3.93124438       0.77987310       0.22545346      -0.00115151       0.00356636      -0.00130667
Si       5.03790279       3.76958882       5.42350224       0.00115151       0.00356636       0.00130667
Si       5.19955835       2.04818707       3.54051701      -0.00356636       0.00115151       0.00130667
