12
Lattice="6.019834241442266 -5.937853521480827e-62 2.614760514082479e-47 5.842859854479795e-62 6.019834241442266 2.1869923698676983e-16 -3.293661263647104e-47 -2.7548266901424543e-16 7.582833971918168" Properties=species:S:1:pos:R:3:forces:R:3 cutoff=-1.0 nneightol=1.2 n_minim_iter=1 energy=-1953.284315610397 stress="0.08782179325492985 1.0343072035206135e-16 3.4342231366895372e-18 1.0343072035206135e-16 0.08782179325492959 -1.0868306161993947e-16 3.4342231366895372e-18 -1.0868306161993947e-16 0.08595861834474786" free_energy=-1953.284315610397 pbc="T T T"
Si       0.43024638       0.43024638       0.00000000      -0.00480123      -0.00480123       0.00000000
Si      -0.43024639      -0.43024639       3.79141699       0.00480123       0.00480123       0.00000000
Si       2.57967073       3.44016350       5.68712548       0.00480123      -0.00480123      -0.00000000
Si       3.44016350       2.57967073       1.89570849      -0.00480123       0.00480123       0.00000000
Si       0.78514267       3.95780765      -0.22697684       0.03236645      -0.01301538      -0.06511433
Si       0.94789053       2.22477445       1.66873166      -0.01301538      -0.03236645      -0.06511433
Si       2.06202659       5.23469157       4.01839382       0.01301538      -0.03236645       0.06511433
Si       2.22477445       0.94789053       5.91410232      -0.03236645      -0.01301538       0.06511433
Si       3.79505979       5.07194371       2.12268533       0.03236645       0.01301538       0.06511433
Si       3.95780765       0.78514267       0.22697684      -0.01301538       0.03236645       0.06511433
Si       5.07194371       3.79505979       5.46014864       0.01301538       0.03236645      -0.06511433
Si       5.23469157       2.06202659       3.56444015      -0.03236645       0.01301538      -0.06511433
12
Lattice="6.010851097933225 -5.9289927143257205e-62 2.6289403795270956e-47 5.834422832196726e-62 6.010851097933225 2.1935341212417965e-16 -3.278967612362616e-47 -2.7507157790263772e-16 7.605515813537193" Properties=species:S:1:pos:R:3:forces:R:3 cutoff=-1.0 nneightol=1.2 n_minim_iter=2 energy=-1953.2852751558214 stress="0.08666220067151344 -2.0383124381880851e-16 -2.2221443825638192e-17 -2.0383124381880851e-16 0.0866622006715135 -1.5070179176296448e-16 -2.2221443825638192e-17 -1.5070179176296448e-16 0.08716932617250694" free_energy=-1953.2852751558214 pbc="T T T"
Si       0.42956239       0.42956239       0.00000000      -0.00241945      -0.00241945      -0.00000000
Si      -0.42956240      -0.42956240       3.80275791       0.00241945       0.00241945      -0.00000000
Si       2.57586315       3.43498794       5.70413686       0.00241945      -0.00241945      -0.00000000
Si       3.43498794       2.57586315       1.90137895      -0.00241945       0.00241945       0.00000000
Si       0.78425383       3.95178786      -0.22822726       0.03606859      -0.01716871      -0.07088057
Si       0.94636231       2.22117171       1.67315169      -0.01716871      -0.03606859      -0.07088057
Si       2.05906324       5.22659726       4.03098517       0.01716871      -0.03606859       0.07088057
Si       2.22117171       0.94636231       5.93236412      -0.03606859      -0.01716871       0.07088057
Si       3.78967938       5.06448879       2.12960622       0.03606859       0.01716871       0.07088057
Si       3.95178786       0.78425383       0.22822726      -0.01716871       0.03606859       0.07088057
Si       5.06448879       3.78967938       5.47590960       0.01716871       0.03606859      -0.07088057
Si       5.22659726       2.05906324       3.57453064      -0.03606859       0.01716871      -0.07088057
12
Lattice="6.006180887248099 -5.925474895930953e-62 2.624683899176969e-47 5.829580190299304e-62 6.006180887248099 2.1721334862800557e-16 -3.286979816455124e-47 -2.7800772709754227e-16 7.617348014809349" Properties=species:S:1:pos:R:3:forces:R:3 cutoff=-1.0 nneightol=1.2 n_minim_iter=3 energy=-1953.2907353401797 stress="0.0848643997182267 2.3514327830039145e-16 2.1453793948025407e-16 2.3514327830039145e-16 0.08486439971822621 -2.1251780822337786e-16 2.1453793948025407e-16 -2.1251780822337786e-16 0.08485387492025065" free_energy=-1953.2907353401797 pbc="T T T"
Si       0.42860974       0.42860974       0.00000000      -0.04467276      -0.04467276      -0.00000000
Si      -0.42860974      -0.42860974       3.80867401       0.04467276       0.04467276       0.00000000
Si       2.57448070       3.43170018       5.71301101       0.04467276      -0.04467276      -0.00000000
Si       3.43170018       2.57448070       1.90433700      -0.04467276       0.04467276      -0.00000000
Si       0.79098107       3.94534049      -0.24322298      -0.01896011       0.00157050      -0.00896441
Si       0.94225005       2.21210936       1.66111403       0.00157050       0.01896011      -0.00896441
Si       2.06084039       5.21519981       4.05189698      -0.00157050       0.01896011       0.00896441
Si       2.21210936       0.94225005       5.95623399       0.01896011       0.00157050       0.00896441
Si       3.79407152       5.06393084       2.14755998      -0.01896011      -0.00157050       0.00896441
Si       3.94534049       0.79098107       0.24322298       0.00157050      -0.01896011       0.00896441
Si       5.06393084       3.79407152       5.46978804      -0.00157050      -0.01896011      -0.00896441
Si       5.21519981       2.06084039       3.56545103       0.01896011      -0.00157050      -0.00896441
12
Lattice="6.005529526736868 -5.924207415583864e-62 2.624074510606581e-47 5.8301072158083195e-62 6.005529526736868 2.1593967665183228e-16 -3.2881183114037753e-47 -2.796540927423216e-16 7.6190004615236715" Properties=species:S:1:pos:R:3:forces:R:3 cutoff=-1.0 nneightol=1.2 n_minim_iter=4 energy=-1953.2924241944932 stress="0.08424007476574176 -3.5089679931939983e-16 2.3958756706551997e-16 -3.5089679931939983e-16 0.0842400747657423 7.918914526954792e-17 2.3958756706551997e-16 7.918914526954792e-17 0.08425035764212893" free_energy=-1953.2924241944932 pbc="T T T"
Si       0.42072675       0.42072675       0.00000000       0.00216560       0.00216560      -0.00000000
Si      -0.42072676      -0.42072676       3.80950023      -0.00216560      -0.00216560      -0.00000000
Si       2.58203801       3.42349151       5.71425035      -0.00216560       0.00216560      -0.00000000
Si       3.42349151       2.58203801       1.90475012       0.00216560      -0.00216560       0.00000000
Si       0.78992243       3.94413178      -0.24936836      -0.00677030      -0.02504734       0.00147218
Si       0.94136702       2.21284233       1.65538175      -0.02504734       0.00677030       0.00147218
Si       2.06139774       5.21560709       4.05886860       0.02504734       0.00677030      -0.00147218
Si       2.21284233       0.94136702       5.96361871       0.00677030      -0.02504734      -0.00147218
Si       3.79268720       5.06416250       2.15411848      -0.00677030       0.02504734      -0.00147218
Si       3.94413178       0.78992243       0.24936836      -0.02504734      -0.00677030      -0.00147218
Si       5.06416250       3.79268720       5.46488198       0.02504734      -0.00677030       0.00147218
Si       5.21560709       2.06139774       3.56013187       0.00677030       0.02504734       0.00147218
12
Lattice="6.0048742044096 -5.9634353853506055e-62 2.6234711436346665e-47 7.125485445988232e-62 6.0048742044096 2.1792581252996253e-16 -3.289251597485096e-47 -2.7715926391021685e-16 7.620663501709317" Properties=species:S:1:pos:R:3:forces:R:3 cutoff=-1.0 nneightol=1.2 n_minim_iter=5 energy=-1953.2929243112503 stress="0.08405509858825 -7.333076462460695e-17 -1.3615684671345758e-16 -7.333076462460695e-17 0.08405509858824976 -2.868586384764239e-17 -1.3615684671345758e-16 -2.868586384764239e-17 0.0840796065048106" free_energy=-1953.2929243112503 pbc="T T T"
Si       0.41869588       0.41869588       0.00000000      -0.00141945      -0.00141945       0.00000000
Si      -0.41869589      -0.41869589       3.81033175       0.00141945       0.00141945       0.00000000
Si       2.58374121       3.42113299       5.71549763       0.00141945      -0.00141945      -0.00000000
Si       3.42113299       2.58374121       1.90516588      -0.00141945       0.00141945      -0.00000000
Si       0.78822778       3.93890088      -0.25086615       0.00368021      -0.00115423       0.00135027
Si       0.93646378       2.21420931       1.65429972      -0.00115423      -0.00368021       0.00135027
Si       2.06597332       5.21664642       4.06119790       0.00115423      -0.00368021      -0.00135027
Si       2.21420931       0.93646378       5.96636378      -0.00368021      -0.00115423      -0.00135027
Si       3.79066489       5.06841042       2.15603203       0.00368021       0.00115423      -0.00135027
Si       3.93890088       0.78822778       0.25086615      -0.00115423       0.00368021      -0.00135027
Si       5.06841042       3.79066489       5.46463147       0.00115423       0.00368021       0.00135027
Si       5.21664642       2.06597332       3.55946560      -0.00368021       0.00115423       0.00135027
