12
Lattice="5.518004105723932 5.109981615667417e-61 2.307316003324827e-47 -5.115428837299347e-61 5.518004105723934 -2.6463909492897636e-18 -2.7728249604749193e-47 -2.6162632445705918e-17 6.678336441329217" Properties=species:S:1:pos:R:3:forces:R:3 cutoff=-1.0 nneightol=1.2 n_minim_iter=5 energy=-1955.7105655414803 stress="-0.045498789143745826 -1.9064562188784096e-16 -3.055149942435755e-16 -1.9064562188784096e-16 -0.045498789143744764 -1.1246364172043438e-16 -3.055149942435755e-16 -1.1246364172043438e-16 -0.045525141366050924" free_energy=-1955.7105655414803 pbc="T T T"
Si       0.45201029       0.45201029      -0.00000000       0.00287733       0.00287733       0.00000000
Si      -0.45201029      -0.45201029       3.33916822      -0.00287733      -0.00287733      -0.00000000
Si       2.30699176       3.21101234       5.00875233      -0.00287733       0.00287733       0.00000000
Si       3.21101234       2.30699176       1.66958411       0.00287733      -0.00287733       0.00000000
Si       0.72822381       3.66408956       0.00575084      -0.00238458       0.00187417       0.00026406
Si       0.90508751       2.03077824       1.67533495       0.00187417       0.00238458       0.00026406
Si       1.85391454       4.78978029       3.33341738      -0.00187417       0.00238458      -0.00026406
Si       2.03077824       0.90508751       5.00300149       0.00238458       0.00187417      -0.00026406
Si       3.48722586       4.61291659       1.66383327      -0.00238458      -0.00187417      -0.00026406
Si       3.66408956       0.72822381      -0.00575084       0.00187417      -0.00238458      -0.00026406
Si       4.61291659       3.48722586       5.01450317      -0.00187417      -0.00238458       0.00026406
Si       4.78978029       1.85391454       3.34491906       0.00238458      -0.00187417       0.00026406
