12
Lattice="5.3234338346072105 4.9512549464647214e-61 2.256752297697604e-47 -4.9501004568934794e-61 5.3234338346072105 -2.7233156476811392e-17 -2.7130191557344036e-47 3.273911597124778e-17 6.399717852202343" Properties=species:S:1:pos:R:3:forces:R:3 cutoff=-1.0 nneightol=1.2 n_minim_iter=1 energy=-1953.9082276531826 stress="-0.1376640196963877 8.298416078790958e-16 4.939756563925866e-16 8.298416078790958e-16 -0.1376640196963879 5.608159841532441e-16 4.939756563925866e-16 5.608159841532441e-16 -0.1362539953130165" free_energy=-1953.9082276531826 pbc="T T T"
Si       0.44958786       0.44958786      -0.00000000       0.01097030       0.01097030       0.00000000
Si      -0.44958786      -0.44958786       3.19985893      -0.01097030      -0.01097030       0.00000000
Si       2.21212906       3.11130477       4.79978839      -0.01097030       0.01097030       0.00000000
Si       3.11130477       2.21212906       1.59992946       0.01097030      -0.01097030       0.00000000
Si       0.74015797       3.53491728       0.11283667       0.03807532      -0.03378842       0.17321627
Si       0.87320036       1.92155894       1.71276613      -0.03378842      -0.03807532       0.17321627
Si       1.78851655       4.58327586       3.08702226       0.03378842      -0.03807532      -0.17321627
Si       1.92155894       0.87320036       4.68695172      -0.03807532      -0.03378842      -0.17321627
Si       3.40187489       4.45023347       1.48709280       0.03807532       0.03378842      -0.17321627
Si       3.53491728       0.74015797      -0.11283667      -0.03378842       0.03807532      -0.17321627
Si       4.45023347       3.40187489       4.91262506       0.03378842       0.03807532       0.17321627
Si       4.58327586       1.78851655       3.31269559      -0.03807532       0.03378842       0.17321627
12
Lattice="5.334760892948262 4.961790092647141e-61 2.2796901724722087e-47 -4.9606493863387344e-61 5.334760892948262 -2.7117633372212717e-17 -2.680628862194932e-47 3.280877737555186e-17 6.372570236189698" Properties=species:S:1:pos:R:3:forces:R:3 cutoff=-1.0 nneightol=1.2 n_minim_iter=2 energy=-1953.9120471592735 stress="-0.13335251180758778 -4.2658055773752195e-16 8.973706167500521e-16 -4.2658055773752195e-16 -0.1333525118075872 -4.5912074019913565e-18 8.973706167500521e-16 -4.5912074019913565e-18 -0.1400787881557154" free_energy=-1953.9120471592735 pbc="T T T"
Si       0.45081861       0.45081861      -0.00000000      -0.05143261      -0.05143261       0.00000000
Si      -0.45081861      -0.45081861       3.18628512       0.05143261       0.05143261       0.00000000
Si       2.21656184       3.11819905       4.77942768       0.05143261      -0.05143261       0.00000000
Si       3.11819905       2.21656184       1.59314256      -0.05143261       0.05143261       0.00000000
Si       0.74268430       3.54159446       0.11665888       0.03833179       0.05579610       0.15853918
Si       0.87421401       1.92469614       1.70980144       0.05579610      -0.03833179       0.15853918
Si       1.79316643       4.59207659       3.06962623      -0.05579610      -0.03833179      -0.15853918
Si       1.92469614       0.87421401       4.66276879      -0.03833179       0.05579610      -0.15853918
Si       3.41006474       4.46054687       1.47648368       0.03833179      -0.05579610      -0.15853918
Si       3.54159446       0.74268430      -0.11665888       0.05579610       0.03833179      -0.15853918
Si       4.46054687       3.41006474       4.89608656      -0.05579610       0.03833179       0.15853918
Si       4.59207659       1.79316643       3.30294400      -0.03833179      -0.05579610       0.15853918
12
Lattice="5.325834090044041 4.95320049259971e-61 2.272926042461452e-47 -4.952197115823407e-61 5.325834090044041 -2.720861504309663e-17 -2.6933589786037655e-47 3.2753877541232034e-17 6.393950681892935" Properties=species:S:1:pos:R:3:forces:R:3 cutoff=-1.0 nneightol=1.2 n_minim_iter=3 energy=-1953.9315116741961 stress="-0.12826882282793023 7.267498716735487e-17 -2.242039614639113e-16 7.267498716735487e-17 -0.12826882282793103 -2.1616934851042643e-16 -2.242039614639113e-16 -2.1616934851042643e-16 -0.1287818895892594" free_energy=-1953.9315116741961 pbc="T T T"
Si       0.44987255       0.44987255      -0.00000000       0.05820859       0.05820859      -0.00000000
Si      -0.44987256      -0.44987256       3.19697534      -0.05820859      -0.05820859       0.00000000
Si       2.21304449       3.11278960       4.79546301      -0.05820859       0.05820859      -0.00000000
Si       3.11278960       2.21304449       1.59848767       0.05820859      -0.05820859      -0.00000000
Si       0.74736349       3.53314133       0.14344342       0.08727418       0.00970360      -0.01787139
Si       0.87022429       1.91555355       1.74193109       0.00970360      -0.08727418      -0.01787139
Si       1.79269275       4.57847059       3.05353192      -0.00970360      -0.08727418       0.01787139
Si       1.91555355       0.87022429       4.65201959      -0.08727418       0.00970360       0.01787139
Si       3.41028054       4.45560980       1.45504425       0.08727418      -0.00970360       0.01787139
Si       3.53314133       0.74736349      -0.14344342       0.00970360       0.08727418       0.01787139
Si       4.45560980       3.41028054       4.93890643      -0.00970360       0.08727418      -0.01787139
Si       4.57847059       1.79269275       3.34041876      -0.08727418      -0.00970360      -0.01787139
12
Lattice="5.320322779848989 4.9480670491418096e-61 2.269283362590739e-47 -4.947064319357808e-61 5.320322779848989 -2.7265014924370766e-17 -2.7005906441257115e-47 3.271998298571858e-17 6.407204500904314" Properties=species:S:1:pos:R:3:forces:R:3 cutoff=-1.0 nneightol=1.2 n_minim_iter=4 energy=-1953.935467149645 stress="-0.1265477574281516 2.603597197545934e-16 6.698571599505397e-16 2.603597197545934e-16 -0.12654775742815133 -7.589265835491719e-16 6.698571599505397e-16 -7.589265835491719e-16 -0.12703692325811508" free_energy=-1953.935467149645 pbc="T T T"
Si       0.45448509       0.45448509      -0.00000000      -0.00554893      -0.00554893      -0.00000000
Si      -0.45448509      -0.45448509       3.20360225       0.00554893       0.00554893      -0.00000000
Si       2.20567630       3.11464648       4.80540338       0.00554893      -0.00554893       0.00000000
Si       3.11464648       2.20567630       1.60180113      -0.00554893       0.00554893      -0.00000000
Si       0.75509752       3.52943952       0.14766343       0.00145240       0.00464580      -0.00147692
Si       0.86927813       1.90506386       1.74946455       0.00464580      -0.00145240      -0.00147692
Si       1.79088325       4.56522525       3.05593882      -0.00464580      -0.00145240       0.00147692
Si       1.90506386       0.86927813       4.65773995      -0.00145240       0.00464580       0.00147692
Si       3.41525891       4.45104464       1.45413770       0.00145240      -0.00464580       0.00147692
Si       3.52943952       0.75509752      -0.14766343       0.00464580       0.00145240       0.00147692
Si       4.45104464       3.41525891       4.95306680      -0.00464580       0.00145240      -0.00147692
Si       4.56522525       1.79088325       3.35126568      -0.00145240      -0.00464580      -0.00147692
