12
Lattice="5.376671704690936 5.000770780751549e-61 2.2793213178768206e-47 -3.7165794103625055e-62 5.376671704690936 -2.750550610893361e-17 -2.709239313579888e-47 -1.828881781625055e-18 6.46371927650354" Properties=species:S:1:pos:R:3:forces:R:3 cutoff=-1.0 nneightol=1.2 n_minim_iter=5 energy=-1954.5538365082175 stress="-0.09906110799832982 -2.2359770828062154e-16 2.139333854938195e-16 -2.2359770828062154e-16 -0.0990611079983306 8.551022509575042e-16 2.139333854938195e-16 8.551022509575042e-16 -0.09943862683023104" free_energy=-1954.5538365082175 pbc="T T T"
Si       0.45408403       0.45408403      -0.00000000      -0.00168623      -0.00168623      -0.00000000
Si      -0.45408404      -0.45408404       3.23185964       0.00168623       0.00168623      -0.00000000
Si       2.23425182       3.14241988       4.84778946       0.00168623      -0.00168623       0.00000000
Si       3.14241988       2.23425182       1.61592982      -0.00168623       0.00168623      -0.00000000
Si       0.74756004       3.57026879       0.11396511       0.00087802       0.00388574      -0.00253049
Si       0.88193294       1.94077581       1.72989493       0.00388574      -0.00087802      -0.00253049
Si       1.80640291       4.62911166       3.11789453      -0.00388574      -0.00087802       0.00253049
Si       1.94077581       0.88193294       4.73382435      -0.00087802       0.00388574       0.00253049
Si       3.43589589       4.49473876       1.50196471       0.00087802      -0.00388574       0.00253049
Si       3.57026879       0.74756004      -0.11396511       0.00388574       0.00087802       0.00253049
Si       4.49473876       3.43589589       4.96175457      -0.00388574       0.00087802      -0.00253049
Si       4.62911166       1.80640291       3.34582475      -0.00087802      -0.00388574      -0.00253049
