12
Lattice="5.753568604374982 1.4950874121864937e-63 2.376562973058362e-47 -1.7822351331633625e-63 5.753568604374982 6.95173715554547e-17 -2.8801647969308804e-47 -8.424834039702422e-17 6.972769473775949" Properties=species:S:1:pos:R:3:forces:R:3 cutoff=-1.0 nneightol=1.2 n_minim_iter=1 energy=-1955.9318940480136 stress="0.026759199709926913 1.177338959725013e-16 -3.5932859270607653e-17 1.177338959725013e-16 0.02675919970992716 1.7413110573594338e-17 -3.5932859270607653e-17 1.7413110573594338e-17 0.026822731487597107" free_energy=-1955.9318940480136 pbc="T T T"
Si       0.46362339       0.46362339       0.00000000       0.00746577       0.00746577       0.00000000
Si      -0.46362339      -0.46362339       3.48638474      -0.00746577      -0.00746577       0.00000000
Si       2.41316091       3.34040769       5.22957711      -0.00746577       0.00746577      -0.00000000
Si       3.34040769       2.41316091       1.74319237       0.00746577      -0.00746577      -0.00000000
Si       0.73505836       3.82341766      -0.07130658       0.00799149       0.00617974      -0.06775468
Si       0.94663336       2.14172594       1.67188579       0.00617974      -0.00799149      -0.06775468
Si       1.93015094       5.01851024       3.55769131      -0.00617974      -0.00799149       0.06775468
Si       2.14172594       0.94663336       5.30088368      -0.00799149       0.00617974       0.06775468
Si       3.61184266       4.80693524       1.81449894       0.00799149      -0.00617974       0.06775468
Si       3.82341766       0.73505836       0.07130658       0.00617974       0.00799149       0.06775468
Si       4.80693524       3.61184266       5.15827053      -0.00617974       0.00799149      -0.06775468
Si       5.01851024       1.93015094       3.41507816      -0.00799149      -0.00617974      -0.06775468
12
Lattice="5.7568776782119375 1.706414459253694e-63 2.379523786076019e-47 -1.9667091032854208e-63 5.7568776782119375 6.943747685735002e-17 -2.874926209533057e-47 -8.429679449537333e-17 6.964755832011367" Properties=species:S:1:pos:R:3:forces:R:3 cutoff=-1.0 nneightol=1.2 n_minim_iter=2 energy=-1955.9341557777639 stress="0.0267432009202427 2.3412254084760353e-17 -5.591434728853769e-17 2.3412254084760353e-17 0.026743200920243567 -2.3902631928923936e-16 -5.591434728853769e-17 -2.3902631928923936e-16 0.0245226194397508" free_energy=-1955.9341557777639 pbc="T T T"
Si       0.46476869       0.46476869       0.00000000      -0.02976358      -0.02976358      -0.00000000
Si      -0.46476870      -0.46476870       3.48237792       0.02976358       0.02976358       0.00000000
Si       2.41367014       3.34320753       5.22356687       0.02976358      -0.02976358      -0.00000000
Si       3.34320753       2.41367014       1.74118896      -0.02976358       0.02976358       0.00000000
Si       0.73642165       3.82634394      -0.07918502      -0.01920599       0.01328627      -0.01405607
Si       0.94790510       2.14201719       1.66200394       0.01328627       0.01920599      -0.01405607
Si       1.93053373       5.02045603       3.56156293      -0.01328627       0.01920599       0.01405607
Si       2.14201719       0.94790510       5.30275189       0.01920599       0.01328627       0.01405607
Si       3.61486049       4.80897257       1.82037398      -0.01920599      -0.01328627       0.01405607
Si       3.82634394       0.73642165       0.07918502       0.01328627      -0.01920599       0.01405607
Si       4.80897257       3.61486049       5.14438186      -0.01328627      -0.01920599      -0.01405607
Si       5.02045603       1.93053373       3.40319290       0.01920599      -0.01328627      -0.01405607
12
Lattice="5.750749126049929 1.7444329964923811e-63 2.387336881124023e-47 -1.997643898981576e-63 5.750749126049929 6.958555424475071e-17 -2.86776831676139e-47 -8.420705534664861e-17 6.9796083712187835" Properties=species:S:1:pos:R:3:forces:R:3 cutoff=-1.0 nneightol=1.2 n_minim_iter=3 energy=-1955.9348543947808 stress="0.025695867802368714 1.1170844866892803e-16 1.1533085665186824e-16 1.1170844866892803e-16 0.025695867802368814 -2.738675711749466e-16 1.1533085665186824e-16 -2.738675711749466e-16 0.025797686302550873" free_energy=-1955.9348543947808 pbc="T T T"
Si       0.46432666       0.46432666       0.00000000      -0.02659665      -0.02659665       0.00000000
Si      -0.46432667      -0.46432667       3.48980419       0.02659665       0.02659665       0.00000000
Si       2.41104789       3.33970123       5.23470628       0.02659665      -0.02659665      -0.00000000
Si       3.33970123       2.41104789       1.74490209      -0.02659665       0.02659665       0.00000000
Si       0.73578609       3.82258978      -0.08190101      -0.02133944      -0.00137844      -0.00543791
Si       0.94721521       2.13958847       1.66300109      -0.00137844       0.02133944      -0.00543791
Si       1.92815934       5.01496303       3.57170519       0.00137844       0.02133944       0.00543791
Si       2.13958847       0.94721521       5.31660729       0.02133944      -0.00137844       0.00543791
Si       3.61116065       4.80353391       1.82680310      -0.02133944       0.00137844       0.00543791
Si       3.82258978       0.73578609       0.08190101      -0.00137844      -0.02133944       0.00543791
Si       4.80353391       3.61116065       5.15280527       0.00137844      -0.02133944      -0.00543791
Si       5.01496303       1.92815934       3.40790318       0.02133944       0.00137844      -0.00543791
12
Lattice="5.751958248576871 1.659493194156642e-63 2.388450662521617e-47 -1.6631177846452902e-63 5.751958248576871 6.428402442659469e-17 -2.865802560453093e-47 -9.058700129081101e-17 6.976674304474393" Properties=species:S:1:pos:R:3:forces:R:3 cutoff=-1.0 nneightol=1.2 n_minim_iter=4 energy=-1955.9354154023506 stress="0.025561800245577176 1.914634260900015e-16 -1.6307975524027231e-16 1.914634260900015e-16 0.02556180024557693 3.709736573732262e-16 -1.6307975524027231e-16 3.709736573732262e-16 0.02552235695113148" free_energy=-1955.9354154023506 pbc="T T T"
Si       0.46153798       0.46153798       0.00000000       0.00460243       0.00460243      -0.00000000
Si      -0.46153798      -0.46153798       3.48833715      -0.00460243      -0.00460243       0.00000000
Si       2.41444114       3.33751710       5.23250573      -0.00460243       0.00460243      -0.00000000
Si       3.33751710       2.41444114       1.74416858       0.00460243      -0.00460243      -0.00000000
Si       0.73370498       3.82348154      -0.08450384      -0.00422466      -0.01768306      -0.00234021
Si       0.94750241       2.14227414       1.65966474      -0.01768306       0.00422466      -0.00234021
Si       1.92847671       5.01825326       3.57284099       0.01768306       0.00422466       0.00234021
Si       2.14227414       0.94750241       5.31700956       0.00422466      -0.01768306       0.00234021
Si       3.60968411       4.80445583       1.82867241      -0.00422466       0.01768306       0.00234021
Si       3.82348154       0.73370498       0.08450384      -0.01768306      -0.00422466       0.00234021
Si       4.80445583       3.60968411       5.14800189       0.01768306      -0.00422466      -0.00234021
Si       5.01825326       1.92847671       3.40383332       0.00422466       0.01768306      -0.00234021
12
Lattice="5.751139476408043 1.2552723125390572e-63 2.3879001814371284e-47 -2.3096171218532156e-63 5.751139476408043 6.430232957011786e-17 -2.86688673092873e-47 -9.057410653179028e-17 6.97866094152145" Properties=species:S:1:pos:R:3:forces:R:3 cutoff=-1.0 nneightol=1.2 n_minim_iter=5 energy=-1955.9355557594806 stress="0.02550077362628976 -7.022004055767949e-16 -2.8878745799679794e-16 -7.022004055767949e-16 0.02550077362629029 5.1585494595231674e-17 -2.8878745799679794e-16 5.1585494595231674e-17 0.02548600705404982" free_energy=-1955.9355557594806 pbc="T T T"
Si       0.46117305       0.46117305       0.00000000      -0.00206408      -0.00206408      -0.00000000
Si      -0.46117305      -0.46117305       3.48933047       0.00206408       0.00206408       0.00000000
Si       2.41439669       3.33674278       5.23399571       0.00206408      -0.00206408       0.00000000
Si       3.33674278       2.41439669       1.74466524      -0.00206408       0.00206408      -0.00000000
Si       0.73261327       3.82124153      -0.08537060       0.00308715      -0.00108921      -0.00056437
Si       0.94567180       2.14295646       1.65929463      -0.00108921      -0.00308715      -0.00056437
Si       1.92989794       5.01852620       3.57470107       0.00108921      -0.00308715       0.00056437
Si       2.14295646       0.94567180       5.31936631      -0.00308715      -0.00108921       0.00056437
Si       3.60818301       4.80546768       1.83003584       0.00308715       0.00108921       0.00056437
Si       3.82124153       0.73261327       0.08537060      -0.00108921       0.00308715       0.00056437
Si       4.80546768       3.60818301       5.14862510       0.00108921       0.00308715      -0.00056437
Si       5.01852620       1.92989794       3.40395987      -0.00308715       0.00108921      -0.00056437
