12
Lattice="5.937231969870163 -3.529450896746557e-62 2.5328248119278112e-47 -5.497414478815995e-62 5.937231969870163 1.2373242153581892e-16 -3.0851506965105617e-47 2.7453833015114826e-17 7.327577694826886" Properties=species:S:1:pos:R:3:forces:R:3 cutoff=-1.0 nneightol=1.2 n_minim_iter=5 energy=-1954.932098038365 stress="0.06275918166816692 -8.109516381310209e-17 -2.3977908154710607e-17 -8.109516381310209e-17 0.06275918166816664 5.98765806640686e-17 -2.3977908154710607e-17 5.98765806640686e-17 0.0627400022287358" free_energy=-1954.932098038365 pbc="T T T"
Si       0.45308822       0.45308822       0.00000000      -0.00145009      -0.00145009      -0.00000000
Si      -0.45308823      -0.45308823       3.66378885       0.00145009       0.00145009      -0.00000000
Si       2.51552776       3.42170421       5.49568327       0.00145009      -0.00145009      -0.00000000
Si       3.42170421       2.51552776       1.83189442      -0.00145009       0.00145009      -0.00000000
Si       0.76150848       3.92759584      -0.15616538       0.00399400      -0.00105817       0.00105655
Si       0.95897986       2.20710749       1.67572904      -0.00105817      -0.00399400       0.00105655
Si       2.00963612       5.17572348       3.81995423       0.00105817      -0.00399400      -0.00105655
Si       2.20710749       0.95897986       5.65184866      -0.00399400      -0.00105817      -0.00105655
Si       3.73012447       4.97825211       1.98805981       0.00399400       0.00105817      -0.00105655
Si       3.92759584       0.76150848       0.15616538      -0.00105817       0.00399400      -0.00105655
Si       4.97825211       3.73012447       5.33951789       0.00105817       0.00399400       0.00105655
Si       5.17572348       2.00963612       3.50762346      -0.00399400       0.00105817       0.00105655
