12
Lattice="5.1999972757614685 5.157503876032827e-61 2.2324716525131397e-47 -4.916468447377584e-61 5.199997275761469 -2.855302722317589e-17 -2.6712168296669993e-47 2.959615772176896e-17 6.300660372685127" Properties=species:S:1:pos:R:3:forces:R:3 cutoff=-1.0 nneightol=1.2 n_minim_iter=6 energy=-1953.1495345969101 stress="-0.15986459473960934 -1.861519388660518e-16 4.0990514897825604e-16 -1.861519388660518e-16 -0.15986459473961057 -4.884614250024843e-16 4.0990514897825604e-16 -4.884614250024843e-16 -0.15981757351197654" free_energy=-1953.1495345969101 pbc="T T T"
Si       0.45177155       0.45177155      -0.00000000       0.00117630       0.00117630      -0.00000000
Si      -0.45177156      -0.45177156       3.15033019      -0.00117630      -0.00117630       0.00000000
Si       2.14822708       3.05177019       4.72549528      -0.00117630       0.00117630       0.00000000
Si       3.05177019       2.14822708       1.57516509       0.00117630      -0.00117630       0.00000000
Si       0.75668884       3.44371121       0.18158311      -0.00244748       0.00049748       0.00053225
Si       0.84371257       1.84330979       1.75674821       0.00049748       0.00244748       0.00053225
Si       1.75628606       4.44330843       2.96874707      -0.00049748       0.00244748      -0.00053225
Si       1.84330979       0.84371257       4.54391217       0.00244748       0.00049748      -0.00053225
Si       3.35668748       4.35628470       1.39358198      -0.00244748      -0.00049748      -0.00053225
Si       3.44371121       0.75668884      -0.18158311       0.00049748      -0.00244748      -0.00053225
Si       4.35628470       3.35668748       4.90707839      -0.00049748      -0.00244748       0.00053225
Si       4.44330843       1.75628606       3.33191330       0.00244748      -0.00049748       0.00053225
