12
Lattice="5.266029983569124 4.897573045790045e-61 2.24612579407383e-47 -4.8965805486566065e-61 5.266029983569124 -2.6986781072382873e-17 -2.673031673788016e-47 3.238608231013313e-17 6.341820300906415" Properties=species:S:1:pos:R:3:forces:R:3 cutoff=-1.0 nneightol=1.2 n_minim_iter=4 energy=-1953.935467149645 stress="-0.1265477574281516 2.603597197545934e-16 6.698571599505397e-16 2.603597197545934e-16 -0.12654775742815133 -7.589265835491719e-16 6.698571599505397e-16 -7.589265835491719e-16 -0.12703692325811508" free_energy=-1953.935467149645 pbc="T T T"
Si       0.44984716       0.44984716      -0.00000000      -0.00554893      -0.00554893      -0.00000000
Si      -0.44984717      -0.44984717       3.17091015       0.00554893       0.00554893      -0.00000000
Si       2.18316783       3.08286215       4.75636523       0.00554893      -0.00554893       0.00000000
Si       3.08286215       2.18316783       1.58545508      -0.00554893       0.00554893      -0.00000000
Si       0.74739191       3.49342232       0.14615655       0.00145240       0.00464580      -0.00147692
Si       0.86040733       1.88562308       1.73161163       0.00464580      -0.00145240      -0.00147692
Si       1.77260766       4.51863807       3.02475360      -0.00464580      -0.00145240       0.00147692
Si       1.88562308       0.86040733       4.61020867      -0.00145240       0.00464580       0.00147692
Si       3.38040690       4.40562265       1.43929852       0.00145240      -0.00464580       0.00147692
Si       3.49342232       0.74739191      -0.14615655       0.00464580       0.00145240       0.00147692
Si       4.40562265       3.38040690       4.90252178      -0.00464580       0.00145240      -0.00147692
Si       4.51863807       1.77260766       3.31706670      -0.00145240      -0.00464580      -0.00147692
