12
Lattice="5.255320547983748 5.2123750568796376e-61 2.256223133602603e-47 -4.9687752290665595e-61 5.255320547983749 -2.8856805631907196e-17 -2.69963616298497e-47 2.991103409641767e-17 6.367693705683777" Properties=species:S:1:pos:R:3:forces:R:3 cutoff=-1.0 nneightol=1.2 n_minim_iter=6 energy=-1953.1495345969101 stress="-0.15986459473960934 -1.861519388660518e-16 4.0990514897825604e-16 -1.861519388660518e-16 -0.15986459473961057 -4.884614250024843e-16 4.0990514897825604e-16 -4.884614250024843e-16 -0.15981757351197654" free_energy=-1953.1495345969101 pbc="T T T"
Si       0.45657799       0.45657799      -0.00000000       0.00117630       0.00117630      -0.00000000
Si      -0.45657800      -0.45657800       3.18384685      -0.00117630      -0.00117630       0.00000000
Si       2.17108228       3.08423827       4.77577028      -0.00117630       0.00117630       0.00000000
Si       3.08423827       2.17108228       1.59192343       0.00117630      -0.00117630       0.00000000
Si       0.76473933       3.48034918       0.18351499      -0.00244748       0.00049748       0.00053225
Si       0.85268891       1.86292094       1.77543842       0.00049748       0.00244748       0.00053225
Si       1.77497136       4.49058122       3.00033186      -0.00049748       0.00244748      -0.00053225
Si       1.86292094       0.85268891       4.59225529       0.00244748       0.00049748      -0.00053225
Si       3.39239960       4.40263163       1.40840843      -0.00244748      -0.00049748      -0.00053225
Si       3.48034918       0.76473933      -0.18351499       0.00049748      -0.00244748      -0.00053225
Si       4.40263163       3.39239960       4.95928527      -0.00049748      -0.00244748       0.00053225
Si       4.49058122       1.77497136       3.36736185       0.00244748      -0.00049748       0.00053225
