12
Lattice="5.993850488639895 -5.913133262213644e-62 2.5881915855374757e-47 6.771623681167914e-62 5.993850488639894 2.163991758531656e-16 -3.196462338851043e-47 -2.734335182797491e-16 7.4957462713309315" Properties=species:S:1:pos:R:3:forces:R:3 cutoff=-1.0 nneightol=1.2 n_minim_iter=5 energy=-1954.1710271856482 stress="0.07516844644662976 -1.2634258632630364e-17 1.1416734043046345e-16 -1.2634258632630364e-17 0.07516844644662984 1.4352571852741557e-17 1.1416734043046345e-16 1.4352571852741557e-17 0.07514974457996378" free_energy=-1954.1710271856482 pbc="T T T"
Si       0.43857791       0.43857791       0.00000000      -0.00138901      -0.00138901       0.00000000
Si      -0.43857792      -0.43857792       3.74787314       0.00138901       0.00138901      -0.00000000
Si       2.55834733       3.43550316       5.62180970       0.00138901      -0.00138901       0.00000000
Si       3.43550316       2.55834733       1.87393657      -0.00138901       0.00138901      -0.00000000
Si       0.77699903       3.94939514      -0.20214335       0.00364623      -0.00109868       0.00135524
Si       0.95246990       2.21992621       1.67179322      -0.00109868      -0.00364623       0.00135524
Si       2.04445534       5.21685145       3.95001648       0.00109868      -0.00364623      -0.00135524
Si       2.21992621       0.95246990       5.82395305      -0.00364623      -0.00109868      -0.00135524
Si       3.77392428       5.04138058       2.07607992       0.00364623       0.00109868      -0.00135524
Si       3.94939514       0.77699903       0.20214335      -0.00109868       0.00364623      -0.00135524
Si       5.04138058       3.77392428       5.41966635       0.00109868       0.00364623       0.00135524
Si       5.21685145       2.04445534       3.54572979      -0.00364623       0.00109868       0.00135524
