LAMMPS (27 Jun 2024 - Development - patch_17Apr2024-1524-g5a286ff933-modified)
  using 1 OpenMP thread(s) per MPI task
units metal
atom_style atomic
atom_modify map array sort 0 0
boundary p p p
box tilt large

The 'box' command has been removed and will be ignored

region cell prism    0 5.61117223661233 0 5.290263918552354 0 4.5815029461905485     -1.8703907455374433 -1.8703907455374433 -2.645131959276177     units box
create_box 1 cell
Created triclinic box = (0 0 0) to (5.6111722 5.2902639 4.5815029) with tilt (-1.8703907 -1.8703907 -2.645132)
WARNING: Triclinic box skew is large. LAMMPS will run inefficiently. (src/domain.cpp:221)
  1 by 1 by 1 MPI processor grid
echo none
Created 8 atoms
  using lattice units in triclinic box = (0 0 0) to (5.6111722 5.2902639 4.5815029) with tilt (-1.8703907 -1.8703907 -2.645132)
  create_atoms CPU = 0.001 seconds
Setting atom values ...
  1 settings made for type
Setting atom values ...
  1 settings made for type
Setting atom values ...
  1 settings made for type
Setting atom values ...
  1 settings made for type
Setting atom values ...
  1 settings made for type
Setting atom values ...
  1 settings made for type
Setting atom values ...
  1 settings made for type
Setting atom values ...
  1 settings made for type
pair_style hybrid/overlay pace table spline 5000
ACE version: 2023.11.25
Recursive evaluator is used
pair_coeff * * pace /home/eng/phrffk/testing-framework/example_models/Si/models/Si_jl_ACE/0ce218cb3e.yace Si
Loading /home/eng/phrffk/testing-framework/example_models/Si/models/Si_jl_ACE/0ce218cb3e.yace
Total number of basis functions
	Si: 32 (r=1) 45284 (r>1)
Mapping LAMMPS atom type #1(Si) -> ACE species type #0
pair_coeff 1 1 table /home/eng/phrffk/testing-framework/example_models/Si/models/Si_jl_ACE/0ce218cb3e_pairpot.table Si_Si
Reading pair table potential file /home/eng/phrffk/testing-framework/example_models/Si/models/Si_jl_ACE/0ce218cb3e_pairpot.table with DATE: none
WARNING: 1 of 6000 force values in table Si_Si are inconsistent with -dE/dr.
WARNING:  Should only be flagged at inflection points (src/pair_table.cpp:473)
mass 1 28.084999992775294685998233035207
variable pxx equal pxx
variable pyy equal pyy
variable pzz equal pzz
variable pxy equal pxy
variable pxz equal pxz
variable pyz equal pyz
thermo_style custom pe pxx emol ecoul
variable fx atom fx
variable fy atom fy
variable fz atom fz
variable pe equal pe
neigh_modify delay 0 every 1 check yes
echo none
run 0
WARNING: No fixes with time integration, atoms won't move (src/verlet.cpp:60)
Neighbor list info ...
  update: every = 1 steps, delay = 0 steps, check = yes
  max neighbors/atom: 2000, page size: 100000
  master list distance cutoff = 8
  ghost atom cutoff = 8
  binsize = 4, bins = 3 2 2
  2 neighbor lists, perpetual/occasional/extra = 2 0 0
  (1) pair pace, perpetual
      attributes: full, newton on
      pair build: full/bin/atomonly
      stencil: full/bin/3d
      bin: standard
  (2) pair table, perpetual, half/full from (1)
      attributes: half, newton on
      pair build: halffull/newton/tri
      stencil: none
      bin: none
Per MPI rank memory allocation (min/avg/max) = 3.598 | 3.598 | 3.598 Mbytes
    PotEng          Pxx           E_mol          E_coul    
-1303.7713      94653.929      0              0            
Loop time of 9.44e-07 on 1 procs for 0 steps with 8 atoms

105.9% CPU use with 1 MPI tasks x 1 OpenMP threads

MPI task timing breakdown:
Section |  min time  |  avg time  |  max time  |%varavg| %total
---------------------------------------------------------------
Pair    | 0          | 0          | 0          |   0.0 |  0.00
Neigh   | 0          | 0          | 0          |   0.0 |  0.00
Comm    | 0          | 0          | 0          |   0.0 |  0.00
Output  | 0          | 0          | 0          |   0.0 |  0.00
Modify  | 0          | 0          | 0          |   0.0 |  0.00
Other   |            | 9.44e-07   |            |       |100.00

Nlocal:              8 ave           8 max           8 min
Histogram: 1 0 0 0 0 0 0 0 0 0
Nghost:            720 ave         720 max         720 min
Histogram: 1 0 0 0 0 0 0 0 0 0
Neighs:            488 ave         488 max         488 min
Histogram: 1 0 0 0 0 0 0 0 0 0
FullNghs:          976 ave         976 max         976 min
Histogram: 1 0 0 0 0 0 0 0 0 0

Total # of neighbors = 976
Ave neighs/atom = 122
Neighbor list builds = 0
Dangerous builds = 0
set atom * x 0.0 y 0.0 z 0.0
Setting atom values ...
  8 settings made for x
  8 settings made for y
  8 settings made for z
change_box all     x final 0 5.840168519715315 y final 0 5.506163684750534 z final 0 4.768477628389295      xy final -1.9467228399051058 xz final -1.9467228399051049 yz final -2.753081842375268 units box
Changing box ...
WARNING: Triclinic box skew is large. LAMMPS will run inefficiently. (src/domain.cpp:221)
  triclinic box = (0 0 0) to (5.8401685 5.2902639 4.5815029) with tilt (-1.8703907 -1.8703907 -2.645132)
WARNING: Triclinic box skew is large. LAMMPS will run inefficiently. (src/domain.cpp:221)
  triclinic box = (0 0 0) to (5.8401685 5.5061637 4.5815029) with tilt (-1.8703907 -1.8703907 -2.645132)
WARNING: Triclinic box skew is large. LAMMPS will run inefficiently. (src/domain.cpp:221)
  triclinic box = (0 0 0) to (5.8401685 5.5061637 4.7684776) with tilt (-1.8703907 -1.8703907 -2.645132)
WARNING: Triclinic box skew is large. LAMMPS will run inefficiently. (src/domain.cpp:221)
  triclinic box = (0 0 0) to (5.8401685 5.5061637 4.7684776) with tilt (-1.9467228 -1.8703907 -2.645132)
WARNING: Triclinic box skew is large. LAMMPS will run inefficiently. (src/domain.cpp:221)
  triclinic box = (0 0 0) to (5.8401685 5.5061637 4.7684776) with tilt (-1.9467228 -1.9467228 -2.645132)
WARNING: Triclinic box skew is large. LAMMPS will run inefficiently. (src/domain.cpp:221)
  triclinic box = (0 0 0) to (5.8401685 5.5061637 4.7684776) with tilt (-1.9467228 -1.9467228 -2.7530818)
echo none
run 0
WARNING: No fixes with time integration, atoms won't move (src/verlet.cpp:60)
Per MPI rank memory allocation (min/avg/max) = 3.599 | 3.599 | 3.599 Mbytes
    PotEng          Pxx           E_mol          E_coul    
-1304.0618     -33510.29       0              0            
Loop time of 6.74e-07 on 1 procs for 0 steps with 8 atoms

148.4% CPU use with 1 MPI tasks x 1 OpenMP threads

MPI task timing breakdown:
Section |  min time  |  avg time  |  max time  |%varavg| %total
---------------------------------------------------------------
Pair    | 0          | 0          | 0          |   0.0 |  0.00
Neigh   | 0          | 0          | 0          |   0.0 |  0.00
Comm    | 0          | 0          | 0          |   0.0 |  0.00
Output  | 0          | 0          | 0          |   0.0 |  0.00
Modify  | 0          | 0          | 0          |   0.0 |  0.00
Other   |            | 6.74e-07   |            |       |100.00

Nlocal:              8 ave           8 max           8 min
Histogram: 1 0 0 0 0 0 0 0 0 0
Nghost:            600 ave         600 max         600 min
Histogram: 1 0 0 0 0 0 0 0 0 0
Neighs:            472 ave         472 max         472 min
Histogram: 1 0 0 0 0 0 0 0 0 0
FullNghs:          944 ave         944 max         944 min
Histogram: 1 0 0 0 0 0 0 0 0 0

Total # of neighbors = 944
Ave neighs/atom = 118
Neighbor list builds = 0
Dangerous builds = 0
set atom * x 0.0 y 0.0 z 0.0
Setting atom values ...
  8 settings made for x
  8 settings made for y
  8 settings made for z
change_box all     x final 0 5.785324354454864 y final 0 5.454456109864959 z final 0 4.7236975549702995      xy final -1.9284414514849544 xz final -1.9284414514849544 yz final -2.727228054932479 units box
Changing box ...
WARNING: Triclinic box skew is large. LAMMPS will run inefficiently. (src/domain.cpp:221)
  triclinic box = (0 0 0) to (5.7853244 5.5061637 4.7684776) with tilt (-1.9467228 -1.9467228 -2.7530818)
WARNING: Triclinic box skew is large. LAMMPS will run inefficiently. (src/domain.cpp:221)
  triclinic box = (0 0 0) to (5.7853244 5.4544561 4.7684776) with tilt (-1.9467228 -1.9467228 -2.7530818)
WARNING: Triclinic box skew is large. LAMMPS will run inefficiently. (src/domain.cpp:221)
  triclinic box = (0 0 0) to (5.7853244 5.4544561 4.7236976) with tilt (-1.9467228 -1.9467228 -2.7530818)
WARNING: Triclinic box skew is large. LAMMPS will run inefficiently. (src/domain.cpp:221)
  triclinic box = (0 0 0) to (5.7853244 5.4544561 4.7236976) with tilt (-1.9284415 -1.9467228 -2.7530818)
WARNING: Triclinic box skew is large. LAMMPS will run inefficiently. (src/domain.cpp:221)
  triclinic box = (0 0 0) to (5.7853244 5.4544561 4.7236976) with tilt (-1.9284415 -1.9284415 -2.7530818)
WARNING: Triclinic box skew is large. LAMMPS will run inefficiently. (src/domain.cpp:221)
  triclinic box = (0 0 0) to (5.7853244 5.4544561 4.7236976) with tilt (-1.9284415 -1.9284415 -2.7272281)
echo none
run 0
WARNING: No fixes with time integration, atoms won't move (src/verlet.cpp:60)
Per MPI rank memory allocation (min/avg/max) = 3.599 | 3.599 | 3.599 Mbytes
    PotEng          Pxx           E_mol          E_coul    
-1304.062      -21676.506      0              0            
Loop time of 6.17e-07 on 1 procs for 0 steps with 8 atoms

162.1% CPU use with 1 MPI tasks x 1 OpenMP threads

MPI task timing breakdown:
Section |  min time  |  avg time  |  max time  |%varavg| %total
---------------------------------------------------------------
Pair    | 0          | 0          | 0          |   0.0 |  0.00
Neigh   | 0          | 0          | 0          |   0.0 |  0.00
Comm    | 0          | 0          | 0          |   0.0 |  0.00
Output  | 0          | 0          | 0          |   0.0 |  0.00
Modify  | 0          | 0          | 0          |   0.0 |  0.00
Other   |            | 6.17e-07   |            |       |100.00

Nlocal:              8 ave           8 max           8 min
Histogram: 1 0 0 0 0 0 0 0 0 0
Nghost:            600 ave         600 max         600 min
Histogram: 1 0 0 0 0 0 0 0 0 0
Neighs:            472 ave         472 max         472 min
Histogram: 1 0 0 0 0 0 0 0 0 0
FullNghs:          944 ave         944 max         944 min
Histogram: 1 0 0 0 0 0 0 0 0 0

Total # of neighbors = 944
Ave neighs/atom = 118
Neighbor list builds = 0
Dangerous builds = 0
set atom * x 0.0 y 0.0 z 0.0
Setting atom values ...
  8 settings made for x
  8 settings made for y
  8 settings made for z
change_box all     x final 0 5.785324354454862 y final 0 5.4544561098649575 z final 0 4.723697554970299      xy final -1.928441451484954 xz final -1.928441451484954 yz final -2.7272280549324788 units box
Changing box ...
WARNING: Triclinic box skew is large. LAMMPS will run inefficiently. (src/domain.cpp:221)
  triclinic box = (0 0 0) to (5.7853244 5.4544561 4.7236976) with tilt (-1.9284415 -1.9284415 -2.7272281)
WARNING: Triclinic box skew is large. LAMMPS will run inefficiently. (src/domain.cpp:221)
  triclinic box = (0 0 0) to (5.7853244 5.4544561 4.7236976) with tilt (-1.9284415 -1.9284415 -2.7272281)
WARNING: Triclinic box skew is large. LAMMPS will run inefficiently. (src/domain.cpp:221)
  triclinic box = (0 0 0) to (5.7853244 5.4544561 4.7236976) with tilt (-1.9284415 -1.9284415 -2.7272281)
WARNING: Triclinic box skew is large. LAMMPS will run inefficiently. (src/domain.cpp:221)
  triclinic box = (0 0 0) to (5.7853244 5.4544561 4.7236976) with tilt (-1.9284415 -1.9284415 -2.7272281)
WARNING: Triclinic box skew is large. LAMMPS will run inefficiently. (src/domain.cpp:221)
  triclinic box = (0 0 0) to (5.7853244 5.4544561 4.7236976) with tilt (-1.9284415 -1.9284415 -2.7272281)
WARNING: Triclinic box skew is large. LAMMPS will run inefficiently. (src/domain.cpp:221)
  triclinic box = (0 0 0) to (5.7853244 5.4544561 4.7236976) with tilt (-1.9284415 -1.9284415 -2.7272281)
echo none
run 0
WARNING: No fixes with time integration, atoms won't move (src/verlet.cpp:60)
Per MPI rank memory allocation (min/avg/max) = 3.599 | 3.599 | 3.599 Mbytes
    PotEng          Pxx           E_mol          E_coul    
-1304.062      -21676.506      0              0            
Loop time of 6.24e-07 on 1 procs for 0 steps with 8 atoms

160.3% CPU use with 1 MPI tasks x 1 OpenMP threads

MPI task timing breakdown:
Section |  min time  |  avg time  |  max time  |%varavg| %total
---------------------------------------------------------------
Pair    | 0          | 0          | 0          |   0.0 |  0.00
Neigh   | 0          | 0          | 0          |   0.0 |  0.00
Comm    | 0          | 0          | 0          |   0.0 |  0.00
Output  | 0          | 0          | 0          |   0.0 |  0.00
Modify  | 0          | 0          | 0          |   0.0 |  0.00
Other   |            | 6.24e-07   |            |       |100.00

Nlocal:              8 ave           8 max           8 min
Histogram: 1 0 0 0 0 0 0 0 0 0
Nghost:            600 ave         600 max         600 min
Histogram: 1 0 0 0 0 0 0 0 0 0
Neighs:            472 ave         472 max         472 min
Histogram: 1 0 0 0 0 0 0 0 0 0
FullNghs:          944 ave         944 max         944 min
Histogram: 1 0 0 0 0 0 0 0 0 0

Total # of neighbors = 944
Ave neighs/atom = 118
Neighbor list builds = 0
Dangerous builds = 0
set atom * x 0.0 y 0.0 z 0.0
Setting atom values ...
  8 settings made for x
  8 settings made for y
  8 settings made for z
change_box all     x final 0 5.813313839556671 y final 0 5.480844849488172 z final 0 4.746550873857855      xy final -1.9377712798522244 xz final -1.937771279852224 yz final -2.740422424744086 units box
Changing box ...
WARNING: Triclinic box skew is large. LAMMPS will run inefficiently. (src/domain.cpp:221)
  triclinic box = (0 0 0) to (5.8133138 5.4544561 4.7236976) with tilt (-1.9284415 -1.9284415 -2.7272281)
WARNING: Triclinic box skew is large. LAMMPS will run inefficiently. (src/domain.cpp:221)
  triclinic box = (0 0 0) to (5.8133138 5.4808448 4.7236976) with tilt (-1.9284415 -1.9284415 -2.7272281)
WARNING: Triclinic box skew is large. LAMMPS will run inefficiently. (src/domain.cpp:221)
  triclinic box = (0 0 0) to (5.8133138 5.4808448 4.7465509) with tilt (-1.9284415 -1.9284415 -2.7272281)
WARNING: Triclinic box skew is large. LAMMPS will run inefficiently. (src/domain.cpp:221)
  triclinic box = (0 0 0) to (5.8133138 5.4808448 4.7465509) with tilt (-1.9377713 -1.9284415 -2.7272281)
WARNING: Triclinic box skew is large. LAMMPS will run inefficiently. (src/domain.cpp:221)
  triclinic box = (0 0 0) to (5.8133138 5.4808448 4.7465509) with tilt (-1.9377713 -1.9377713 -2.7272281)
WARNING: Triclinic box skew is large. LAMMPS will run inefficiently. (src/domain.cpp:221)
  triclinic box = (0 0 0) to (5.8133138 5.4808448 4.7465509) with tilt (-1.9377713 -1.9377713 -2.7404224)
echo none
run 0
WARNING: No fixes with time integration, atoms won't move (src/verlet.cpp:60)
Per MPI rank memory allocation (min/avg/max) = 3.599 | 3.599 | 3.599 Mbytes
    PotEng          Pxx           E_mol          E_coul    
-1304.0813     -28675.69       0              0            
Loop time of 6.29e-07 on 1 procs for 0 steps with 8 atoms

318.0% CPU use with 1 MPI tasks x 1 OpenMP threads

MPI task timing breakdown:
Section |  min time  |  avg time  |  max time  |%varavg| %total
---------------------------------------------------------------
Pair    | 0          | 0          | 0          |   0.0 |  0.00
Neigh   | 0          | 0          | 0          |   0.0 |  0.00
Comm    | 0          | 0          | 0          |   0.0 |  0.00
Output  | 0          | 0          | 0          |   0.0 |  0.00
Modify  | 0          | 0          | 0          |   0.0 |  0.00
Other   |            | 6.29e-07   |            |       |100.00

Nlocal:              8 ave           8 max           8 min
Histogram: 1 0 0 0 0 0 0 0 0 0
Nghost:            600 ave         600 max         600 min
Histogram: 1 0 0 0 0 0 0 0 0 0
Neighs:            472 ave         472 max         472 min
Histogram: 1 0 0 0 0 0 0 0 0 0
FullNghs:          944 ave         944 max         944 min
Histogram: 1 0 0 0 0 0 0 0 0 0

Total # of neighbors = 944
Ave neighs/atom = 118
Neighbor list builds = 0
Dangerous builds = 0
set atom * x 0.0 y 0.0 z 0.0
Setting atom values ...
  8 settings made for x
  8 settings made for y
  8 settings made for z
change_box all     x final 0 5.7451360580580335 y final 0 5.416566220656248 z final 0 4.6908839483689775      xy final -1.9150453526860114 xz final -1.915045352686011 yz final -2.708283110328124 units box
Changing box ...
WARNING: Triclinic box skew is large. LAMMPS will run inefficiently. (src/domain.cpp:221)
  triclinic box = (0 0 0) to (5.7451361 5.4808448 4.7465509) with tilt (-1.9377713 -1.9377713 -2.7404224)
WARNING: Triclinic box skew is large. LAMMPS will run inefficiently. (src/domain.cpp:221)
  triclinic box = (0 0 0) to (5.7451361 5.4165662 4.7465509) with tilt (-1.9377713 -1.9377713 -2.7404224)
WARNING: Triclinic box skew is large. LAMMPS will run inefficiently. (src/domain.cpp:221)
  triclinic box = (0 0 0) to (5.7451361 5.4165662 4.6908839) with tilt (-1.9377713 -1.9377713 -2.7404224)
WARNING: Triclinic box skew is large. LAMMPS will run inefficiently. (src/domain.cpp:221)
  triclinic box = (0 0 0) to (5.7451361 5.4165662 4.6908839) with tilt (-1.9150454 -1.9377713 -2.7404224)
WARNING: Triclinic box skew is large. LAMMPS will run inefficiently. (src/domain.cpp:221)
  triclinic box = (0 0 0) to (5.7451361 5.4165662 4.6908839) with tilt (-1.9150454 -1.9150454 -2.7404224)
WARNING: Triclinic box skew is large. LAMMPS will run inefficiently. (src/domain.cpp:221)
  triclinic box = (0 0 0) to (5.7451361 5.4165662 4.6908839) with tilt (-1.9150454 -1.9150454 -2.7082831)
echo none
run 0
WARNING: No fixes with time integration, atoms won't move (src/verlet.cpp:60)
Per MPI rank memory allocation (min/avg/max) = 3.599 | 3.599 | 3.599 Mbytes
    PotEng          Pxx           E_mol          E_coul    
-1304.1231      9294.042       0              0            
Loop time of 6.39e-07 on 1 procs for 0 steps with 8 atoms

313.0% CPU use with 1 MPI tasks x 1 OpenMP threads

MPI task timing breakdown:
Section |  min time  |  avg time  |  max time  |%varavg| %total
---------------------------------------------------------------
Pair    | 0          | 0          | 0          |   0.0 |  0.00
Neigh   | 0          | 0          | 0          |   0.0 |  0.00
Comm    | 0          | 0          | 0          |   0.0 |  0.00
Output  | 0          | 0          | 0          |   0.0 |  0.00
Modify  | 0          | 0          | 0          |   0.0 |  0.00
Other   |            | 6.39e-07   |            |       |100.00

Nlocal:              8 ave           8 max           8 min
Histogram: 1 0 0 0 0 0 0 0 0 0
Nghost:            720 ave         720 max         720 min
Histogram: 1 0 0 0 0 0 0 0 0 0
Neighs:            472 ave         472 max         472 min
Histogram: 1 0 0 0 0 0 0 0 0 0
FullNghs:          944 ave         944 max         944 min
Histogram: 1 0 0 0 0 0 0 0 0 0

Total # of neighbors = 944
Ave neighs/atom = 118
Neighbor list builds = 0
Dangerous builds = 0
set atom * x 0.0 y 0.0 z 0.0
Setting atom values ...
  8 settings made for x
  8 settings made for y
  8 settings made for z
change_box all     x final 0 5.745136058058036 y final 0 5.41656622065625 z final 0 4.69088394836898      xy final -1.9150453526860123 xz final -1.915045352686011 yz final -2.708283110328126 units box
Changing box ...
WARNING: Triclinic box skew is large. LAMMPS will run inefficiently. (src/domain.cpp:221)
  triclinic box = (0 0 0) to (5.7451361 5.4165662 4.6908839) with tilt (-1.9150454 -1.9150454 -2.7082831)
WARNING: Triclinic box skew is large. LAMMPS will run inefficiently. (src/domain.cpp:221)
  triclinic box = (0 0 0) to (5.7451361 5.4165662 4.6908839) with tilt (-1.9150454 -1.9150454 -2.7082831)
WARNING: Triclinic box skew is large. LAMMPS will run inefficiently. (src/domain.cpp:221)
  triclinic box = (0 0 0) to (5.7451361 5.4165662 4.6908839) with tilt (-1.9150454 -1.9150454 -2.7082831)
WARNING: Triclinic box skew is large. LAMMPS will run inefficiently. (src/domain.cpp:221)
  triclinic box = (0 0 0) to (5.7451361 5.4165662 4.6908839) with tilt (-1.9150454 -1.9150454 -2.7082831)
WARNING: Triclinic box skew is large. LAMMPS will run inefficiently. (src/domain.cpp:221)
  triclinic box = (0 0 0) to (5.7451361 5.4165662 4.6908839) with tilt (-1.9150454 -1.9150454 -2.7082831)
WARNING: Triclinic box skew is large. LAMMPS will run inefficiently. (src/domain.cpp:221)
  triclinic box = (0 0 0) to (5.7451361 5.4165662 4.6908839) with tilt (-1.9150454 -1.9150454 -2.7082831)
echo none
run 0
WARNING: No fixes with time integration, atoms won't move (src/verlet.cpp:60)
Per MPI rank memory allocation (min/avg/max) = 3.599 | 3.599 | 3.599 Mbytes
    PotEng          Pxx           E_mol          E_coul    
-1304.1231      9294.042       0              0            
Loop time of 5.45e-07 on 1 procs for 0 steps with 8 atoms

183.5% CPU use with 1 MPI tasks x 1 OpenMP threads

MPI task timing breakdown:
Section |  min time  |  avg time  |  max time  |%varavg| %total
---------------------------------------------------------------
Pair    | 0          | 0          | 0          |   0.0 |  0.00
Neigh   | 0          | 0          | 0          |   0.0 |  0.00
Comm    | 0          | 0          | 0          |   0.0 |  0.00
Output  | 0          | 0          | 0          |   0.0 |  0.00
Modify  | 0          | 0          | 0          |   0.0 |  0.00
Other   |            | 5.45e-07   |            |       |100.00

Nlocal:              8 ave           8 max           8 min
Histogram: 1 0 0 0 0 0 0 0 0 0
Nghost:            720 ave         720 max         720 min
Histogram: 1 0 0 0 0 0 0 0 0 0
Neighs:            472 ave         472 max         472 min
Histogram: 1 0 0 0 0 0 0 0 0 0
FullNghs:          944 ave         944 max         944 min
Histogram: 1 0 0 0 0 0 0 0 0 0

Total # of neighbors = 944
Ave neighs/atom = 118
Neighbor list builds = 0
Dangerous builds = 0
set atom * x 0.0 y 0.0 z 0.0
Setting atom values ...
  8 settings made for x
  8 settings made for y
  8 settings made for z
change_box all     x final 0 5.745136058058033 y final 0 5.4165662206562475 z final 0 4.6908839483689775      xy final -1.9150453526860112 xz final -1.9150453526860103 yz final -2.7082831103281237 units box
Changing box ...
WARNING: Triclinic box skew is large. LAMMPS will run inefficiently. (src/domain.cpp:221)
  triclinic box = (0 0 0) to (5.7451361 5.4165662 4.6908839) with tilt (-1.9150454 -1.9150454 -2.7082831)
WARNING: Triclinic box skew is large. LAMMPS will run inefficiently. (src/domain.cpp:221)
  triclinic box = (0 0 0) to (5.7451361 5.4165662 4.6908839) with tilt (-1.9150454 -1.9150454 -2.7082831)
WARNING: Triclinic box skew is large. LAMMPS will run inefficiently. (src/domain.cpp:221)
  triclinic box = (0 0 0) to (5.7451361 5.4165662 4.6908839) with tilt (-1.9150454 -1.9150454 -2.7082831)
WARNING: Triclinic box skew is large. LAMMPS will run inefficiently. (src/domain.cpp:221)
  triclinic box = (0 0 0) to (5.7451361 5.4165662 4.6908839) with tilt (-1.9150454 -1.9150454 -2.7082831)
WARNING: Triclinic box skew is large. LAMMPS will run inefficiently. (src/domain.cpp:221)
  triclinic box = (0 0 0) to (5.7451361 5.4165662 4.6908839) with tilt (-1.9150454 -1.9150454 -2.7082831)
WARNING: Triclinic box skew is large. LAMMPS will run inefficiently. (src/domain.cpp:221)
  triclinic box = (0 0 0) to (5.7451361 5.4165662 4.6908839) with tilt (-1.9150454 -1.9150454 -2.7082831)
echo none
run 0
WARNING: No fixes with time integration, atoms won't move (src/verlet.cpp:60)
Per MPI rank memory allocation (min/avg/max) = 3.599 | 3.599 | 3.599 Mbytes
    PotEng          Pxx           E_mol          E_coul    
-1304.1231      9294.042       0              0            
Loop time of 6.14e-07 on 1 procs for 0 steps with 8 atoms

162.9% CPU use with 1 MPI tasks x 1 OpenMP threads

MPI task timing breakdown:
Section |  min time  |  avg time  |  max time  |%varavg| %total
---------------------------------------------------------------
Pair    | 0          | 0          | 0          |   0.0 |  0.00
Neigh   | 0          | 0          | 0          |   0.0 |  0.00
Comm    | 0          | 0          | 0          |   0.0 |  0.00
Output  | 0          | 0          | 0          |   0.0 |  0.00
Modify  | 0          | 0          | 0          |   0.0 |  0.00
Other   |            | 6.14e-07   |            |       |100.00

Nlocal:              8 ave           8 max           8 min
Histogram: 1 0 0 0 0 0 0 0 0 0
Nghost:            720 ave         720 max         720 min
Histogram: 1 0 0 0 0 0 0 0 0 0
Neighs:            472 ave         472 max         472 min
Histogram: 1 0 0 0 0 0 0 0 0 0
FullNghs:          944 ave         944 max         944 min
Histogram: 1 0 0 0 0 0 0 0 0 0

Total # of neighbors = 944
Ave neighs/atom = 118
Neighbor list builds = 0
Dangerous builds = 0
set atom * x 0.0 y 0.0 z 0.0
Setting atom values ...
  8 settings made for x
  8 settings made for y
  8 settings made for z
change_box all     x final 0 5.761778468294418 y final 0 5.432256835500829 z final 0 4.704472419425382      xy final -1.9205928227648066 xz final -1.9205928227648053 yz final -2.716128417750415 units box
Changing box ...
WARNING: Triclinic box skew is large. LAMMPS will run inefficiently. (src/domain.cpp:221)
  triclinic box = (0 0 0) to (5.7617785 5.4165662 4.6908839) with tilt (-1.9150454 -1.9150454 -2.7082831)
WARNING: Triclinic box skew is large. LAMMPS will run inefficiently. (src/domain.cpp:221)
  triclinic box = (0 0 0) to (5.7617785 5.4322568 4.6908839) with tilt (-1.9150454 -1.9150454 -2.7082831)
WARNING: Triclinic box skew is large. LAMMPS will run inefficiently. (src/domain.cpp:221)
  triclinic box = (0 0 0) to (5.7617785 5.4322568 4.7044724) with tilt (-1.9150454 -1.9150454 -2.7082831)
WARNING: Triclinic box skew is large. LAMMPS will run inefficiently. (src/domain.cpp:221)
  triclinic box = (0 0 0) to (5.7617785 5.4322568 4.7044724) with tilt (-1.9205928 -1.9150454 -2.7082831)
WARNING: Triclinic box skew is large. LAMMPS will run inefficiently. (src/domain.cpp:221)
  triclinic box = (0 0 0) to (5.7617785 5.4322568 4.7044724) with tilt (-1.9205928 -1.9205928 -2.7082831)
WARNING: Triclinic box skew is large. LAMMPS will run inefficiently. (src/domain.cpp:221)
  triclinic box = (0 0 0) to (5.7617785 5.4322568 4.7044724) with tilt (-1.9205928 -1.9205928 -2.7161284)
echo none
run 0
WARNING: No fixes with time integration, atoms won't move (src/verlet.cpp:60)
Per MPI rank memory allocation (min/avg/max) = 3.599 | 3.599 | 3.599 Mbytes
    PotEng          Pxx           E_mol          E_coul    
-1304.127      -334.33528      0              0            
Loop time of 6.02e-07 on 1 procs for 0 steps with 8 atoms

166.1% CPU use with 1 MPI tasks x 1 OpenMP threads

MPI task timing breakdown:
Section |  min time  |  avg time  |  max time  |%varavg| %total
---------------------------------------------------------------
Pair    | 0          | 0          | 0          |   0.0 |  0.00
Neigh   | 0          | 0          | 0          |   0.0 |  0.00
Comm    | 0          | 0          | 0          |   0.0 |  0.00
Output  | 0          | 0          | 0          |   0.0 |  0.00
Modify  | 0          | 0          | 0          |   0.0 |  0.00
Other   |            | 6.02e-07   |            |       |100.00

Nlocal:              8 ave           8 max           8 min
Histogram: 1 0 0 0 0 0 0 0 0 0
Nghost:            600 ave         600 max         600 min
Histogram: 1 0 0 0 0 0 0 0 0 0
Neighs:            472 ave         472 max         472 min
Histogram: 1 0 0 0 0 0 0 0 0 0
FullNghs:          944 ave         944 max         944 min
Histogram: 1 0 0 0 0 0 0 0 0 0

Total # of neighbors = 944
Ave neighs/atom = 118
Neighbor list builds = 0
Dangerous builds = 0
set atom * x 0.0 y 0.0 z 0.0
Setting atom values ...
  8 settings made for x
  8 settings made for y
  8 settings made for z
change_box all     x final 0 5.761778468294419 y final 0 5.432256835500831 z final 0 4.704472419425384      xy final -1.9205928227648081 xz final -1.9205928227648066 yz final -2.7161284177504146 units box
Changing box ...
WARNING: Triclinic box skew is large. LAMMPS will run inefficiently. (src/domain.cpp:221)
  triclinic box = (0 0 0) to (5.7617785 5.4322568 4.7044724) with tilt (-1.9205928 -1.9205928 -2.7161284)
WARNING: Triclinic box skew is large. LAMMPS will run inefficiently. (src/domain.cpp:221)
  triclinic box = (0 0 0) to (5.7617785 5.4322568 4.7044724) with tilt (-1.9205928 -1.9205928 -2.7161284)
WARNING: Triclinic box skew is large. LAMMPS will run inefficiently. (src/domain.cpp:221)
  triclinic box = (0 0 0) to (5.7617785 5.4322568 4.7044724) with tilt (-1.9205928 -1.9205928 -2.7161284)
WARNING: Triclinic box skew is large. LAMMPS will run inefficiently. (src/domain.cpp:221)
  triclinic box = (0 0 0) to (5.7617785 5.4322568 4.7044724) with tilt (-1.9205928 -1.9205928 -2.7161284)
WARNING: Triclinic box skew is large. LAMMPS will run inefficiently. (src/domain.cpp:221)
  triclinic box = (0 0 0) to (5.7617785 5.4322568 4.7044724) with tilt (-1.9205928 -1.9205928 -2.7161284)
WARNING: Triclinic box skew is large. LAMMPS will run inefficiently. (src/domain.cpp:221)
  triclinic box = (0 0 0) to (5.7617785 5.4322568 4.7044724) with tilt (-1.9205928 -1.9205928 -2.7161284)
echo none
run 0
WARNING: No fixes with time integration, atoms won't move (src/verlet.cpp:60)
Per MPI rank memory allocation (min/avg/max) = 3.599 | 3.599 | 3.599 Mbytes
    PotEng          Pxx           E_mol          E_coul    
-1304.127      -334.33528      0              0            
Loop time of 6.02e-07 on 1 procs for 0 steps with 8 atoms

166.1% CPU use with 1 MPI tasks x 1 OpenMP threads

MPI task timing breakdown:
Section |  min time  |  avg time  |  max time  |%varavg| %total
---------------------------------------------------------------
Pair    | 0          | 0          | 0          |   0.0 |  0.00
Neigh   | 0          | 0          | 0          |   0.0 |  0.00
Comm    | 0          | 0          | 0          |   0.0 |  0.00
Output  | 0          | 0          | 0          |   0.0 |  0.00
Modify  | 0          | 0          | 0          |   0.0 |  0.00
Other   |            | 6.02e-07   |            |       |100.00

Nlocal:              8 ave           8 max           8 min
Histogram: 1 0 0 0 0 0 0 0 0 0
Nghost:            600 ave         600 max         600 min
Histogram: 1 0 0 0 0 0 0 0 0 0
Neighs:            472 ave         472 max         472 min
Histogram: 1 0 0 0 0 0 0 0 0 0
FullNghs:          944 ave         944 max         944 min
Histogram: 1 0 0 0 0 0 0 0 0 0

Total # of neighbors = 944
Ave neighs/atom = 118
Neighbor list builds = 0
Dangerous builds = 0
set atom * x 0.0 y 0.0 z 0.0
Setting atom values ...
  8 settings made for x
  8 settings made for y
  8 settings made for z
change_box all     x final 0 5.713357872596719 y final 0 5.38660546007825 z final 0 4.664937168591727      xy final -1.9044526241989068 xz final -1.9044526241989062 yz final -2.6933027300391243 units box
Changing box ...
WARNING: Triclinic box skew is large. LAMMPS will run inefficiently. (src/domain.cpp:221)
  triclinic box = (0 0 0) to (5.7133579 5.4322568 4.7044724) with tilt (-1.9205928 -1.9205928 -2.7161284)
WARNING: Triclinic box skew is large. LAMMPS will run inefficiently. (src/domain.cpp:221)
  triclinic box = (0 0 0) to (5.7133579 5.3866055 4.7044724) with tilt (-1.9205928 -1.9205928 -2.7161284)
WARNING: Triclinic box skew is large. LAMMPS will run inefficiently. (src/domain.cpp:221)
  triclinic box = (0 0 0) to (5.7133579 5.3866055 4.6649372) with tilt (-1.9205928 -1.9205928 -2.7161284)
WARNING: Triclinic box skew is large. LAMMPS will run inefficiently. (src/domain.cpp:221)
  triclinic box = (0 0 0) to (5.7133579 5.3866055 4.6649372) with tilt (-1.9044526 -1.9205928 -2.7161284)
WARNING: Triclinic box skew is large. LAMMPS will run inefficiently. (src/domain.cpp:221)
  triclinic box = (0 0 0) to (5.7133579 5.3866055 4.6649372) with tilt (-1.9044526 -1.9044526 -2.7161284)
WARNING: Triclinic box skew is large. LAMMPS will run inefficiently. (src/domain.cpp:221)
  triclinic box = (0 0 0) to (5.7133579 5.3866055 4.6649372) with tilt (-1.9044526 -1.9044526 -2.6933027)
echo none
run 0
WARNING: No fixes with time integration, atoms won't move (src/verlet.cpp:60)
Per MPI rank memory allocation (min/avg/max) = 3.599 | 3.599 | 3.599 Mbytes
    PotEng          Pxx           E_mol          E_coul    
-1304.0979      26187.711      0              0            
Loop time of 6.55e-07 on 1 procs for 0 steps with 8 atoms

305.3% CPU use with 1 MPI tasks x 1 OpenMP threads

MPI task timing breakdown:
Section |  min time  |  avg time  |  max time  |%varavg| %total
---------------------------------------------------------------
Pair    | 0          | 0          | 0          |   0.0 |  0.00
Neigh   | 0          | 0          | 0          |   0.0 |  0.00
Comm    | 0          | 0          | 0          |   0.0 |  0.00
Output  | 0          | 0          | 0          |   0.0 |  0.00
Modify  | 0          | 0          | 0          |   0.0 |  0.00
Other   |            | 6.55e-07   |            |       |100.00

Nlocal:              8 ave           8 max           8 min
Histogram: 1 0 0 0 0 0 0 0 0 0
Nghost:            720 ave         720 max         720 min
Histogram: 1 0 0 0 0 0 0 0 0 0
Neighs:            472 ave         472 max         472 min
Histogram: 1 0 0 0 0 0 0 0 0 0
FullNghs:          944 ave         944 max         944 min
Histogram: 1 0 0 0 0 0 0 0 0 0

Total # of neighbors = 944
Ave neighs/atom = 118
Neighbor list builds = 0
Dangerous builds = 0
set atom * x 0.0 y 0.0 z 0.0
Setting atom values ...
  8 settings made for x
  8 settings made for y
  8 settings made for z
change_box all     x final 0 5.713357872596719 y final 0 5.38660546007825 z final 0 4.664937168591727      xy final -1.9044526241989068 xz final -1.9044526241989062 yz final -2.6933027300391243 units box
Changing box ...
WARNING: Triclinic box skew is large. LAMMPS will run inefficiently. (src/domain.cpp:221)
  triclinic box = (0 0 0) to (5.7133579 5.3866055 4.6649372) with tilt (-1.9044526 -1.9044526 -2.6933027)
WARNING: Triclinic box skew is large. LAMMPS will run inefficiently. (src/domain.cpp:221)
  triclinic box = (0 0 0) to (5.7133579 5.3866055 4.6649372) with tilt (-1.9044526 -1.9044526 -2.6933027)
WARNING: Triclinic box skew is large. LAMMPS will run inefficiently. (src/domain.cpp:221)
  triclinic box = (0 0 0) to (5.7133579 5.3866055 4.6649372) with tilt (-1.9044526 -1.9044526 -2.6933027)
WARNING: Triclinic box skew is large. LAMMPS will run inefficiently. (src/domain.cpp:221)
  triclinic box = (0 0 0) to (5.7133579 5.3866055 4.6649372) with tilt (-1.9044526 -1.9044526 -2.6933027)
WARNING: Triclinic box skew is large. LAMMPS will run inefficiently. (src/domain.cpp:221)
  triclinic box = (0 0 0) to (5.7133579 5.3866055 4.6649372) with tilt (-1.9044526 -1.9044526 -2.6933027)
WARNING: Triclinic box skew is large. LAMMPS will run inefficiently. (src/domain.cpp:221)
  triclinic box = (0 0 0) to (5.7133579 5.3866055 4.6649372) with tilt (-1.9044526 -1.9044526 -2.6933027)
echo none
run 0
WARNING: No fixes with time integration, atoms won't move (src/verlet.cpp:60)
Per MPI rank memory allocation (min/avg/max) = 3.599 | 3.599 | 3.599 Mbytes
    PotEng          Pxx           E_mol          E_coul    
-1304.0461      13133.778      0              0            
Loop time of 6.41e-07 on 1 procs for 0 steps with 8 atoms

156.0% CPU use with 1 MPI tasks x 1 OpenMP threads

MPI task timing breakdown:
Section |  min time  |  avg time  |  max time  |%varavg| %total
---------------------------------------------------------------
Pair    | 0          | 0          | 0          |   0.0 |  0.00
Neigh   | 0          | 0          | 0          |   0.0 |  0.00
Comm    | 0          | 0          | 0          |   0.0 |  0.00
Output  | 0          | 0          | 0          |   0.0 |  0.00
Modify  | 0          | 0          | 0          |   0.0 |  0.00
Other   |            | 6.41e-07   |            |       |100.00

Nlocal:              8 ave           8 max           8 min
Histogram: 1 0 0 0 0 0 0 0 0 0
Nghost:            720 ave         720 max         720 min
Histogram: 1 0 0 0 0 0 0 0 0 0
Neighs:            472 ave         472 max         472 min
Histogram: 1 0 0 0 0 0 0 0 0 0
FullNghs:          944 ave         944 max         944 min
Histogram: 1 0 0 0 0 0 0 0 0 0

Total # of neighbors = 944
Ave neighs/atom = 118
Neighbor list builds = 0
Dangerous builds = 0
set atom * x 0.0 y 0.0 z 0.0
Setting atom values ...
  8 settings made for x
  8 settings made for y
  8 settings made for z
change_box all     x final 0 5.713357872596719 y final 0 5.38660546007825 z final 0 4.664937168591727      xy final -1.9044526241989068 xz final -1.9044526241989062 yz final -2.6933027300391243 units box
Changing box ...
WARNING: Triclinic box skew is large. LAMMPS will run inefficiently. (src/domain.cpp:221)
  triclinic box = (0 0 0) to (5.7133579 5.3866055 4.6649372) with tilt (-1.9044526 -1.9044526 -2.6933027)
WARNING: Triclinic box skew is large. LAMMPS will run inefficiently. (src/domain.cpp:221)
  triclinic box = (0 0 0) to (5.7133579 5.3866055 4.6649372) with tilt (-1.9044526 -1.9044526 -2.6933027)
WARNING: Triclinic box skew is large. LAMMPS will run inefficiently. (src/domain.cpp:221)
  triclinic box = (0 0 0) to (5.7133579 5.3866055 4.6649372) with tilt (-1.9044526 -1.9044526 -2.6933027)
WARNING: Triclinic box skew is large. LAMMPS will run inefficiently. (src/domain.cpp:221)
  triclinic box = (0 0 0) to (5.7133579 5.3866055 4.6649372) with tilt (-1.9044526 -1.9044526 -2.6933027)
WARNING: Triclinic box skew is large. LAMMPS will run inefficiently. (src/domain.cpp:221)
  triclinic box = (0 0 0) to (5.7133579 5.3866055 4.6649372) with tilt (-1.9044526 -1.9044526 -2.6933027)
WARNING: Triclinic box skew is large. LAMMPS will run inefficiently. (src/domain.cpp:221)
  triclinic box = (0 0 0) to (5.7133579 5.3866055 4.6649372) with tilt (-1.9044526 -1.9044526 -2.6933027)
echo none
run 0
WARNING: No fixes with time integration, atoms won't move (src/verlet.cpp:60)
Per MPI rank memory allocation (min/avg/max) = 3.599 | 3.599 | 3.599 Mbytes
    PotEng          Pxx           E_mol          E_coul    
-1304.101       23345.926      0              0            
Loop time of 5.93e-07 on 1 procs for 0 steps with 8 atoms

168.6% CPU use with 1 MPI tasks x 1 OpenMP threads

MPI task timing breakdown:
Section |  min time  |  avg time  |  max time  |%varavg| %total
---------------------------------------------------------------
Pair    | 0          | 0          | 0          |   0.0 |  0.00
Neigh   | 0          | 0          | 0          |   0.0 |  0.00
Comm    | 0          | 0          | 0          |   0.0 |  0.00
Output  | 0          | 0          | 0          |   0.0 |  0.00
Modify  | 0          | 0          | 0          |   0.0 |  0.00
Other   |            | 5.93e-07   |            |       |100.00

Nlocal:              8 ave           8 max           8 min
Histogram: 1 0 0 0 0 0 0 0 0 0
Nghost:            720 ave         720 max         720 min
Histogram: 1 0 0 0 0 0 0 0 0 0
Neighs:            472 ave         472 max         472 min
Histogram: 1 0 0 0 0 0 0 0 0 0
FullNghs:          944 ave         944 max         944 min
Histogram: 1 0 0 0 0 0 0 0 0 0

Total # of neighbors = 944
Ave neighs/atom = 118
Neighbor list builds = 0
Dangerous builds = 0
set atom * x 0.0 y 0.0 z 0.0
Setting atom values ...
  8 settings made for x
  8 settings made for y
  8 settings made for z
change_box all     x final 0 5.66410233649096 y final 0 5.340166895289767 z final 0 4.624720191769613      xy final -1.888034112163653 xz final -1.8880341121636532 yz final -2.6700834476448834 units box
Changing box ...
WARNING: Triclinic box skew is large. LAMMPS will run inefficiently. (src/domain.cpp:221)
  triclinic box = (0 0 0) to (5.6641023 5.3866055 4.6649372) with tilt (-1.9044526 -1.9044526 -2.6933027)
WARNING: Triclinic box skew is large. LAMMPS will run inefficiently. (src/domain.cpp:221)
  triclinic box = (0 0 0) to (5.6641023 5.3401669 4.6649372) with tilt (-1.9044526 -1.9044526 -2.6933027)
WARNING: Triclinic box skew is large. LAMMPS will run inefficiently. (src/domain.cpp:221)
  triclinic box = (0 0 0) to (5.6641023 5.3401669 4.6247202) with tilt (-1.9044526 -1.9044526 -2.6933027)
WARNING: Triclinic box skew is large. LAMMPS will run inefficiently. (src/domain.cpp:221)
  triclinic box = (0 0 0) to (5.6641023 5.3401669 4.6247202) with tilt (-1.8880341 -1.9044526 -2.6933027)
WARNING: Triclinic box skew is large. LAMMPS will run inefficiently. (src/domain.cpp:221)
  triclinic box = (0 0 0) to (5.6641023 5.3401669 4.6247202) with tilt (-1.8880341 -1.8880341 -2.6933027)
WARNING: Triclinic box skew is large. LAMMPS will run inefficiently. (src/domain.cpp:221)
  triclinic box = (0 0 0) to (5.6641023 5.3401669 4.6247202) with tilt (-1.8880341 -1.8880341 -2.6700834)
echo none
run 0
WARNING: No fixes with time integration, atoms won't move (src/verlet.cpp:60)
Per MPI rank memory allocation (min/avg/max) = 3.599 | 3.599 | 3.599 Mbytes
    PotEng          Pxx           E_mol          E_coul    
-1304.0144      52364.117      0              0            
Loop time of 6.24e-07 on 1 procs for 0 steps with 8 atoms

160.3% CPU use with 1 MPI tasks x 1 OpenMP threads

MPI task timing breakdown:
Section |  min time  |  avg time  |  max time  |%varavg| %total
---------------------------------------------------------------
Pair    | 0          | 0          | 0          |   0.0 |  0.00
Neigh   | 0          | 0          | 0          |   0.0 |  0.00
Comm    | 0          | 0          | 0          |   0.0 |  0.00
Output  | 0          | 0          | 0          |   0.0 |  0.00
Modify  | 0          | 0          | 0          |   0.0 |  0.00
Other   |            | 6.24e-07   |            |       |100.00

Nlocal:              8 ave           8 max           8 min
Histogram: 1 0 0 0 0 0 0 0 0 0
Nghost:            720 ave         720 max         720 min
Histogram: 1 0 0 0 0 0 0 0 0 0
Neighs:            476 ave         476 max         476 min
Histogram: 1 0 0 0 0 0 0 0 0 0
FullNghs:          952 ave         952 max         952 min
Histogram: 1 0 0 0 0 0 0 0 0 0

Total # of neighbors = 952
Ave neighs/atom = 119
Neighbor list builds = 0
Dangerous builds = 0
set atom * x 0.0 y 0.0 z 0.0
Setting atom values ...
  8 settings made for x
  8 settings made for y
  8 settings made for z
change_box all     x final 0 5.664102336490958 y final 0 5.340166895289767 z final 0 4.624720191769613      xy final -1.8880341121636535 xz final -1.888034112163653 yz final -2.6700834476448834 units box
Changing box ...
WARNING: Triclinic box skew is large. LAMMPS will run inefficiently. (src/domain.cpp:221)
  triclinic box = (0 0 0) to (5.6641023 5.3401669 4.6247202) with tilt (-1.8880341 -1.8880341 -2.6700834)
WARNING: Triclinic box skew is large. LAMMPS will run inefficiently. (src/domain.cpp:221)
  triclinic box = (0 0 0) to (5.6641023 5.3401669 4.6247202) with tilt (-1.8880341 -1.8880341 -2.6700834)
WARNING: Triclinic box skew is large. LAMMPS will run inefficiently. (src/domain.cpp:221)
  triclinic box = (0 0 0) to (5.6641023 5.3401669 4.6247202) with tilt (-1.8880341 -1.8880341 -2.6700834)
WARNING: Triclinic box skew is large. LAMMPS will run inefficiently. (src/domain.cpp:221)
  triclinic box = (0 0 0) to (5.6641023 5.3401669 4.6247202) with tilt (-1.8880341 -1.8880341 -2.6700834)
WARNING: Triclinic box skew is large. LAMMPS will run inefficiently. (src/domain.cpp:221)
  triclinic box = (0 0 0) to (5.6641023 5.3401669 4.6247202) with tilt (-1.8880341 -1.8880341 -2.6700834)
WARNING: Triclinic box skew is large. LAMMPS will run inefficiently. (src/domain.cpp:221)
  triclinic box = (0 0 0) to (5.6641023 5.3401669 4.6247202) with tilt (-1.8880341 -1.8880341 -2.6700834)
echo none
run 0
Per MPI rank memory allocation (min/avg/max) = 3.599 | 3.599 | 3.599 Mbytes
    PotEng          Pxx           E_mol          E_coul    
WARNING: Too many warnings: 101 vs 100. All future warnings will be suppressed (src/thermo.cpp:478)
-1303.963       39931.822      0              0            
Loop time of 6.04e-07 on 1 procs for 0 steps with 8 atoms

165.6% CPU use with 1 MPI tasks x 1 OpenMP threads

MPI task timing breakdown:
Section |  min time  |  avg time  |  max time  |%varavg| %total
---------------------------------------------------------------
Pair    | 0          | 0          | 0          |   0.0 |  0.00
Neigh   | 0          | 0          | 0          |   0.0 |  0.00
Comm    | 0          | 0          | 0          |   0.0 |  0.00
Output  | 0          | 0          | 0          |   0.0 |  0.00
Modify  | 0          | 0          | 0          |   0.0 |  0.00
Other   |            | 6.04e-07   |            |       |100.00

Nlocal:              8 ave           8 max           8 min
Histogram: 1 0 0 0 0 0 0 0 0 0
Nghost:            720 ave         720 max         720 min
Histogram: 1 0 0 0 0 0 0 0 0 0
Neighs:            472 ave         472 max         472 min
Histogram: 1 0 0 0 0 0 0 0 0 0
FullNghs:          944 ave         944 max         944 min
Histogram: 1 0 0 0 0 0 0 0 0 0

Total # of neighbors = 944
Ave neighs/atom = 118
Neighbor list builds = 0
Dangerous builds = 0
set atom * x 0.0 y 0.0 z 0.0
Setting atom values ...
  8 settings made for x
  8 settings made for y
  8 settings made for z
change_box all     x final 0 5.66410233649096 y final 0 5.340166895289768 z final 0 4.6247201917696135      xy final -1.888034112163656 xz final -1.8880341121636515 yz final -2.6700834476448843 units box
Changing box ...
  triclinic box = (0 0 0) to (5.6641023 5.3401669 4.6247202) with tilt (-1.8880341 -1.8880341 -2.6700834)
  triclinic box = (0 0 0) to (5.6641023 5.3401669 4.6247202) with tilt (-1.8880341 -1.8880341 -2.6700834)
  triclinic box = (0 0 0) to (5.6641023 5.3401669 4.6247202) with tilt (-1.8880341 -1.8880341 -2.6700834)
  triclinic box = (0 0 0) to (5.6641023 5.3401669 4.6247202) with tilt (-1.8880341 -1.8880341 -2.6700834)
  triclinic box = (0 0 0) to (5.6641023 5.3401669 4.6247202) with tilt (-1.8880341 -1.8880341 -2.6700834)
  triclinic box = (0 0 0) to (5.6641023 5.3401669 4.6247202) with tilt (-1.8880341 -1.8880341 -2.6700834)
echo none
run 0
Per MPI rank memory allocation (min/avg/max) = 3.599 | 3.599 | 3.599 Mbytes
    PotEng          Pxx           E_mol          E_coul    
-1304.0175      49667.421      0              0            
Loop time of 6.32e-07 on 1 procs for 0 steps with 8 atoms

316.5% CPU use with 1 MPI tasks x 1 OpenMP threads

MPI task timing breakdown:
Section |  min time  |  avg time  |  max time  |%varavg| %total
---------------------------------------------------------------
Pair    | 0          | 0          | 0          |   0.0 |  0.00
Neigh   | 0          | 0          | 0          |   0.0 |  0.00
Comm    | 0          | 0          | 0          |   0.0 |  0.00
Output  | 0          | 0          | 0          |   0.0 |  0.00
Modify  | 0          | 0          | 0          |   0.0 |  0.00
Other   |            | 6.32e-07   |            |       |100.00

Nlocal:              8 ave           8 max           8 min
Histogram: 1 0 0 0 0 0 0 0 0 0
Nghost:            720 ave         720 max         720 min
Histogram: 1 0 0 0 0 0 0 0 0 0
Neighs:            476 ave         476 max         476 min
Histogram: 1 0 0 0 0 0 0 0 0 0
FullNghs:          952 ave         952 max         952 min
Histogram: 1 0 0 0 0 0 0 0 0 0

Total # of neighbors = 952
Ave neighs/atom = 119
Neighbor list builds = 0
Dangerous builds = 0
set atom * x 0.0 y 0.0 z 0.0
Setting atom values ...
  8 settings made for x
  8 settings made for y
  8 settings made for z
change_box all     x final 0 5.613974908158121 y final 0 5.292906302626311 z final 0 4.583791317925151      xy final -1.8713249693860414 xz final -1.8713249693860394 yz final -2.6464531513131564 units box
Changing box ...
  triclinic box = (0 0 0) to (5.6139749 5.3401669 4.6247202) with tilt (-1.8880341 -1.8880341 -2.6700834)
  triclinic box = (0 0 0) to (5.6139749 5.2929063 4.6247202) with tilt (-1.8880341 -1.8880341 -2.6700834)
  triclinic box = (0 0 0) to (5.6139749 5.2929063 4.5837913) with tilt (-1.8880341 -1.8880341 -2.6700834)
  triclinic box = (0 0 0) to (5.6139749 5.2929063 4.5837913) with tilt (-1.871325 -1.8880341 -2.6700834)
  triclinic box = (0 0 0) to (5.6139749 5.2929063 4.5837913) with tilt (-1.871325 -1.871325 -2.6700834)
  triclinic box = (0 0 0) to (5.6139749 5.2929063 4.5837913) with tilt (-1.871325 -1.871325 -2.6464532)
echo none
run 0
Per MPI rank memory allocation (min/avg/max) = 3.599 | 3.599 | 3.599 Mbytes
    PotEng          Pxx           E_mol          E_coul    
-1303.8684      80381.564      0              0            
Loop time of 6.33e-07 on 1 procs for 0 steps with 8 atoms

158.0% CPU use with 1 MPI tasks x 1 OpenMP threads

MPI task timing breakdown:
Section |  min time  |  avg time  |  max time  |%varavg| %total
---------------------------------------------------------------
Pair    | 0          | 0          | 0          |   0.0 |  0.00
Neigh   | 0          | 0          | 0          |   0.0 |  0.00
Comm    | 0          | 0          | 0          |   0.0 |  0.00
Output  | 0          | 0          | 0          |   0.0 |  0.00
Modify  | 0          | 0          | 0          |   0.0 |  0.00
Other   |            | 6.33e-07   |            |       |100.00

Nlocal:              8 ave           8 max           8 min
Histogram: 1 0 0 0 0 0 0 0 0 0
Nghost:            720 ave         720 max         720 min
Histogram: 1 0 0 0 0 0 0 0 0 0
Neighs:            476 ave         476 max         476 min
Histogram: 1 0 0 0 0 0 0 0 0 0
FullNghs:          952 ave         952 max         952 min
Histogram: 1 0 0 0 0 0 0 0 0 0

Total # of neighbors = 952
Ave neighs/atom = 119
Neighbor list builds = 0
Dangerous builds = 0
set atom * x 0.0 y 0.0 z 0.0
Setting atom values ...
  8 settings made for x
  8 settings made for y
  8 settings made for z
change_box all     x final 0 5.613974908158124 y final 0 5.292906302626313 z final 0 4.583791317925153      xy final -1.8713249693860414 xz final -1.8713249693860403 yz final -2.646453151313157 units box
Changing box ...
  triclinic box = (0 0 0) to (5.6139749 5.2929063 4.5837913) with tilt (-1.871325 -1.871325 -2.6464532)
  triclinic box = (0 0 0) to (5.6139749 5.2929063 4.5837913) with tilt (-1.871325 -1.871325 -2.6464532)
  triclinic box = (0 0 0) to (5.6139749 5.2929063 4.5837913) with tilt (-1.871325 -1.871325 -2.6464532)
  triclinic box = (0 0 0) to (5.6139749 5.2929063 4.5837913) with tilt (-1.871325 -1.871325 -2.6464532)
  triclinic box = (0 0 0) to (5.6139749 5.2929063 4.5837913) with tilt (-1.871325 -1.871325 -2.6464532)
  triclinic box = (0 0 0) to (5.6139749 5.2929063 4.5837913) with tilt (-1.871325 -1.871325 -2.6464532)
echo none
run 0
Per MPI rank memory allocation (min/avg/max) = 3.599 | 3.599 | 3.599 Mbytes
    PotEng          Pxx           E_mol          E_coul    
-1303.8684      80381.564      0              0            
Loop time of 6.26e-07 on 1 procs for 0 steps with 8 atoms

159.7% CPU use with 1 MPI tasks x 1 OpenMP threads

MPI task timing breakdown:
Section |  min time  |  avg time  |  max time  |%varavg| %total
---------------------------------------------------------------
Pair    | 0          | 0          | 0          |   0.0 |  0.00
Neigh   | 0          | 0          | 0          |   0.0 |  0.00
Comm    | 0          | 0          | 0          |   0.0 |  0.00
Output  | 0          | 0          | 0          |   0.0 |  0.00
Modify  | 0          | 0          | 0          |   0.0 |  0.00
Other   |            | 6.26e-07   |            |       |100.00

Nlocal:              8 ave           8 max           8 min
Histogram: 1 0 0 0 0 0 0 0 0 0
Nghost:            720 ave         720 max         720 min
Histogram: 1 0 0 0 0 0 0 0 0 0
Neighs:            476 ave         476 max         476 min
Histogram: 1 0 0 0 0 0 0 0 0 0
FullNghs:          952 ave         952 max         952 min
Histogram: 1 0 0 0 0 0 0 0 0 0

Total # of neighbors = 952
Ave neighs/atom = 119
Neighbor list builds = 0
Dangerous builds = 0
set atom * x 0.0 y 0.0 z 0.0
Setting atom values ...
  8 settings made for x
  8 settings made for y
  8 settings made for z
change_box all     x final 0 5.6139749081581245 y final 0 5.292906302626315 z final 0 4.583791317925153      xy final -1.8713249693860428 xz final -1.8713249693860408 yz final -2.646453151313158 units box
Changing box ...
  triclinic box = (0 0 0) to (5.6139749 5.2929063 4.5837913) with tilt (-1.871325 -1.871325 -2.6464532)
  triclinic box = (0 0 0) to (5.6139749 5.2929063 4.5837913) with tilt (-1.871325 -1.871325 -2.6464532)
  triclinic box = (0 0 0) to (5.6139749 5.2929063 4.5837913) with tilt (-1.871325 -1.871325 -2.6464532)
  triclinic box = (0 0 0) to (5.6139749 5.2929063 4.5837913) with tilt (-1.871325 -1.871325 -2.6464532)
  triclinic box = (0 0 0) to (5.6139749 5.2929063 4.5837913) with tilt (-1.871325 -1.871325 -2.6464532)
  triclinic box = (0 0 0) to (5.6139749 5.2929063 4.5837913) with tilt (-1.871325 -1.871325 -2.6464532)
echo none
run 0
Per MPI rank memory allocation (min/avg/max) = 3.599 | 3.599 | 3.599 Mbytes
    PotEng          Pxx           E_mol          E_coul    
-1303.8161      68632.416      0              0            
Loop time of 6.12e-07 on 1 procs for 0 steps with 8 atoms

163.4% CPU use with 1 MPI tasks x 1 OpenMP threads

MPI task timing breakdown:
Section |  min time  |  avg time  |  max time  |%varavg| %total
---------------------------------------------------------------
Pair    | 0          | 0          | 0          |   0.0 |  0.00
Neigh   | 0          | 0          | 0          |   0.0 |  0.00
Comm    | 0          | 0          | 0          |   0.0 |  0.00
Output  | 0          | 0          | 0          |   0.0 |  0.00
Modify  | 0          | 0          | 0          |   0.0 |  0.00
Other   |            | 6.12e-07   |            |       |100.00

Nlocal:              8 ave           8 max           8 min
Histogram: 1 0 0 0 0 0 0 0 0 0
Nghost:            720 ave         720 max         720 min
Histogram: 1 0 0 0 0 0 0 0 0 0
Neighs:            476 ave         476 max         476 min
Histogram: 1 0 0 0 0 0 0 0 0 0
FullNghs:          952 ave         952 max         952 min
Histogram: 1 0 0 0 0 0 0 0 0 0

Total # of neighbors = 952
Ave neighs/atom = 119
Neighbor list builds = 0
Dangerous builds = 0
set atom * x 0.0 y 0.0 z 0.0
Setting atom values ...
  8 settings made for x
  8 settings made for y
  8 settings made for z
change_box all     x final 0 5.613974908158124 y final 0 5.292906302626313 z final 0 4.583791317925153      xy final -1.8713249693860414 xz final -1.8713249693860403 yz final -2.646453151313157 units box
Changing box ...
  triclinic box = (0 0 0) to (5.6139749 5.2929063 4.5837913) with tilt (-1.871325 -1.871325 -2.6464532)
  triclinic box = (0 0 0) to (5.6139749 5.2929063 4.5837913) with tilt (-1.871325 -1.871325 -2.6464532)
  triclinic box = (0 0 0) to (5.6139749 5.2929063 4.5837913) with tilt (-1.871325 -1.871325 -2.6464532)
  triclinic box = (0 0 0) to (5.6139749 5.2929063 4.5837913) with tilt (-1.871325 -1.871325 -2.6464532)
  triclinic box = (0 0 0) to (5.6139749 5.2929063 4.5837913) with tilt (-1.871325 -1.871325 -2.6464532)
  triclinic box = (0 0 0) to (5.6139749 5.2929063 4.5837913) with tilt (-1.871325 -1.871325 -2.6464532)
echo none
run 0
Per MPI rank memory allocation (min/avg/max) = 3.599 | 3.599 | 3.599 Mbytes
    PotEng          Pxx           E_mol          E_coul    
-1303.8161      68632.416      0              0            
Loop time of 6.08e-07 on 1 procs for 0 steps with 8 atoms

164.5% CPU use with 1 MPI tasks x 1 OpenMP threads

MPI task timing breakdown:
Section |  min time  |  avg time  |  max time  |%varavg| %total
---------------------------------------------------------------
Pair    | 0          | 0          | 0          |   0.0 |  0.00
Neigh   | 0          | 0          | 0          |   0.0 |  0.00
Comm    | 0          | 0          | 0          |   0.0 |  0.00
Output  | 0          | 0          | 0          |   0.0 |  0.00
Modify  | 0          | 0          | 0          |   0.0 |  0.00
Other   |            | 6.08e-07   |            |       |100.00

Nlocal:              8 ave           8 max           8 min
Histogram: 1 0 0 0 0 0 0 0 0 0
Nghost:            720 ave         720 max         720 min
Histogram: 1 0 0 0 0 0 0 0 0 0
Neighs:            476 ave         476 max         476 min
Histogram: 1 0 0 0 0 0 0 0 0 0
FullNghs:          952 ave         952 max         952 min
Histogram: 1 0 0 0 0 0 0 0 0 0

Total # of neighbors = 952
Ave neighs/atom = 119
Neighbor list builds = 0
Dangerous builds = 0
set atom * x 0.0 y 0.0 z 0.0
Setting atom values ...
  8 settings made for x
  8 settings made for y
  8 settings made for z
change_box all     x final 0 5.613974908158124 y final 0 5.292906302626313 z final 0 4.583791317925153      xy final -1.8713249693860414 xz final -1.8713249693860403 yz final -2.646453151313157 units box
Changing box ...
  triclinic box = (0 0 0) to (5.6139749 5.2929063 4.5837913) with tilt (-1.871325 -1.871325 -2.6464532)
  triclinic box = (0 0 0) to (5.6139749 5.2929063 4.5837913) with tilt (-1.871325 -1.871325 -2.6464532)
  triclinic box = (0 0 0) to (5.6139749 5.2929063 4.5837913) with tilt (-1.871325 -1.871325 -2.6464532)
  triclinic box = (0 0 0) to (5.6139749 5.2929063 4.5837913) with tilt (-1.871325 -1.871325 -2.6464532)
  triclinic box = (0 0 0) to (5.6139749 5.2929063 4.5837913) with tilt (-1.871325 -1.871325 -2.6464532)
  triclinic box = (0 0 0) to (5.6139749 5.2929063 4.5837913) with tilt (-1.871325 -1.871325 -2.6464532)
echo none
run 0
Per MPI rank memory allocation (min/avg/max) = 3.599 | 3.599 | 3.599 Mbytes
    PotEng          Pxx           E_mol          E_coul    
-1303.8711      77974.897      0              0            
Loop time of 6.29e-07 on 1 procs for 0 steps with 8 atoms

159.0% CPU use with 1 MPI tasks x 1 OpenMP threads

MPI task timing breakdown:
Section |  min time  |  avg time  |  max time  |%varavg| %total
---------------------------------------------------------------
Pair    | 0          | 0          | 0          |   0.0 |  0.00
Neigh   | 0          | 0          | 0          |   0.0 |  0.00
Comm    | 0          | 0          | 0          |   0.0 |  0.00
Output  | 0          | 0          | 0          |   0.0 |  0.00
Modify  | 0          | 0          | 0          |   0.0 |  0.00
Other   |            | 6.29e-07   |            |       |100.00

Nlocal:              8 ave           8 max           8 min
Histogram: 1 0 0 0 0 0 0 0 0 0
Nghost:            720 ave         720 max         720 min
Histogram: 1 0 0 0 0 0 0 0 0 0
Neighs:            476 ave         476 max         476 min
Histogram: 1 0 0 0 0 0 0 0 0 0
FullNghs:          952 ave         952 max         952 min
Histogram: 1 0 0 0 0 0 0 0 0 0

Total # of neighbors = 952
Ave neighs/atom = 119
Neighbor list builds = 0
Dangerous builds = 0
set atom * x 0.0 y 0.0 z 0.0
Setting atom values ...
  8 settings made for x
  8 settings made for y
  8 settings made for z
change_box all     x final 0 5.613974908158124 y final 0 5.292906302626313 z final 0 4.583791317925153      xy final -1.8713249693860414 xz final -1.8713249693860403 yz final -2.646453151313157 units box
Changing box ...
  triclinic box = (0 0 0) to (5.6139749 5.2929063 4.5837913) with tilt (-1.871325 -1.871325 -2.6464532)
  triclinic box = (0 0 0) to (5.6139749 5.2929063 4.5837913) with tilt (-1.871325 -1.871325 -2.6464532)
  triclinic box = (0 0 0) to (5.6139749 5.2929063 4.5837913) with tilt (-1.871325 -1.871325 -2.6464532)
  triclinic box = (0 0 0) to (5.6139749 5.2929063 4.5837913) with tilt (-1.871325 -1.871325 -2.6464532)
  triclinic box = (0 0 0) to (5.6139749 5.2929063 4.5837913) with tilt (-1.871325 -1.871325 -2.6464532)
  triclinic box = (0 0 0) to (5.6139749 5.2929063 4.5837913) with tilt (-1.871325 -1.871325 -2.6464532)
echo none
run 0
Per MPI rank memory allocation (min/avg/max) = 3.599 | 3.599 | 3.599 Mbytes
    PotEng          Pxx           E_mol          E_coul    
-1303.8711      77974.897      0              0            
Loop time of 6.22e-07 on 1 procs for 0 steps with 8 atoms

321.5% CPU use with 1 MPI tasks x 1 OpenMP threads

MPI task timing breakdown:
Section |  min time  |  avg time  |  max time  |%varavg| %total
---------------------------------------------------------------
Pair    | 0          | 0          | 0          |   0.0 |  0.00
Neigh   | 0          | 0          | 0          |   0.0 |  0.00
Comm    | 0          | 0          | 0          |   0.0 |  0.00
Output  | 0          | 0          | 0          |   0.0 |  0.00
Modify  | 0          | 0          | 0          |   0.0 |  0.00
Other   |            | 6.22e-07   |            |       |100.00

Nlocal:              8 ave           8 max           8 min
Histogram: 1 0 0 0 0 0 0 0 0 0
Nghost:            720 ave         720 max         720 min
Histogram: 1 0 0 0 0 0 0 0 0 0
Neighs:            476 ave         476 max         476 min
Histogram: 1 0 0 0 0 0 0 0 0 0
FullNghs:          952 ave         952 max         952 min
Histogram: 1 0 0 0 0 0 0 0 0 0

Total # of neighbors = 952
Ave neighs/atom = 119
Neighbor list builds = 0
Dangerous builds = 0
set atom * x 0.0 y 0.0 z 0.0
Setting atom values ...
  8 settings made for x
  8 settings made for y
  8 settings made for z
change_box all     x final 0 5.562935947587545 y final 0 5.24478630912742 z final 0 4.54211818112517      xy final -1.8543119825291818 xz final -1.8543119825291816 yz final -2.622393154563709 units box
Changing box ...
  triclinic box = (0 0 0) to (5.5629359 5.2929063 4.5837913) with tilt (-1.871325 -1.871325 -2.6464532)
  triclinic box = (0 0 0) to (5.5629359 5.2447863 4.5837913) with tilt (-1.871325 -1.871325 -2.6464532)
  triclinic box = (0 0 0) to (5.5629359 5.2447863 4.5421182) with tilt (-1.871325 -1.871325 -2.6464532)
  triclinic box = (0 0 0) to (5.5629359 5.2447863 4.5421182) with tilt (-1.854312 -1.871325 -2.6464532)
  triclinic box = (0 0 0) to (5.5629359 5.2447863 4.5421182) with tilt (-1.854312 -1.854312 -2.6464532)
  triclinic box = (0 0 0) to (5.5629359 5.2447863 4.5421182) with tilt (-1.854312 -1.854312 -2.6223932)
echo none
run 0
Per MPI rank memory allocation (min/avg/max) = 3.599 | 3.599 | 3.599 Mbytes
    PotEng          Pxx           E_mol          E_coul    
-1303.6561      109220.57      0              0            
Loop time of 6.83e-07 on 1 procs for 0 steps with 8 atoms

146.4% CPU use with 1 MPI tasks x 1 OpenMP threads

MPI task timing breakdown:
Section |  min time  |  avg time  |  max time  |%varavg| %total
---------------------------------------------------------------
Pair    | 0          | 0          | 0          |   0.0 |  0.00
Neigh   | 0          | 0          | 0          |   0.0 |  0.00
Comm    | 0          | 0          | 0          |   0.0 |  0.00
Output  | 0          | 0          | 0          |   0.0 |  0.00
Modify  | 0          | 0          | 0          |   0.0 |  0.00
Other   |            | 6.83e-07   |            |       |100.00

Nlocal:              8 ave           8 max           8 min
Histogram: 1 0 0 0 0 0 0 0 0 0
Nghost:            720 ave         720 max         720 min
Histogram: 1 0 0 0 0 0 0 0 0 0
Neighs:            524 ave         524 max         524 min
Histogram: 1 0 0 0 0 0 0 0 0 0
FullNghs:         1048 ave        1048 max        1048 min
Histogram: 1 0 0 0 0 0 0 0 0 0

Total # of neighbors = 1048
Ave neighs/atom = 131
Neighbor list builds = 0
Dangerous builds = 0
set atom * x 0.0 y 0.0 z 0.0
Setting atom values ...
  8 settings made for x
  8 settings made for y
  8 settings made for z
change_box all     x final 0 5.562935947587543 y final 0 5.24478630912742 z final 0 4.542118181125169      xy final -1.854311982529182 xz final -1.8543119825291814 yz final -2.622393154563709 units box
Changing box ...
  triclinic box = (0 0 0) to (5.5629359 5.2447863 4.5421182) with tilt (-1.854312 -1.854312 -2.6223932)
  triclinic box = (0 0 0) to (5.5629359 5.2447863 4.5421182) with tilt (-1.854312 -1.854312 -2.6223932)
  triclinic box = (0 0 0) to (5.5629359 5.2447863 4.5421182) with tilt (-1.854312 -1.854312 -2.6223932)
  triclinic box = (0 0 0) to (5.5629359 5.2447863 4.5421182) with tilt (-1.854312 -1.854312 -2.6223932)
  triclinic box = (0 0 0) to (5.5629359 5.2447863 4.5421182) with tilt (-1.854312 -1.854312 -2.6223932)
  triclinic box = (0 0 0) to (5.5629359 5.2447863 4.5421182) with tilt (-1.854312 -1.854312 -2.6223932)
echo none
run 0
Per MPI rank memory allocation (min/avg/max) = 3.599 | 3.599 | 3.599 Mbytes
    PotEng          Pxx           E_mol          E_coul    
-1303.6561      109220.57      0              0            
Loop time of 6.06e-07 on 1 procs for 0 steps with 8 atoms

165.0% CPU use with 1 MPI tasks x 1 OpenMP threads

MPI task timing breakdown:
Section |  min time  |  avg time  |  max time  |%varavg| %total
---------------------------------------------------------------
Pair    | 0          | 0          | 0          |   0.0 |  0.00
Neigh   | 0          | 0          | 0          |   0.0 |  0.00
Comm    | 0          | 0          | 0          |   0.0 |  0.00
Output  | 0          | 0          | 0          |   0.0 |  0.00
Modify  | 0          | 0          | 0          |   0.0 |  0.00
Other   |            | 6.06e-07   |            |       |100.00

Nlocal:              8 ave           8 max           8 min
Histogram: 1 0 0 0 0 0 0 0 0 0
Nghost:            720 ave         720 max         720 min
Histogram: 1 0 0 0 0 0 0 0 0 0
Neighs:            524 ave         524 max         524 min
Histogram: 1 0 0 0 0 0 0 0 0 0
FullNghs:         1048 ave        1048 max        1048 min
Histogram: 1 0 0 0 0 0 0 0 0 0

Total # of neighbors = 1048
Ave neighs/atom = 131
Neighbor list builds = 0
Dangerous builds = 0
set atom * x 0.0 y 0.0 z 0.0
Setting atom values ...
  8 settings made for x
  8 settings made for y
  8 settings made for z
change_box all     x final 0 5.562935947587542 y final 0 5.244786309127417 z final 0 4.542118181125168      xy final -1.8543119825291812 xz final -1.8543119825291805 yz final -2.622393154563708 units box
Changing box ...
  triclinic box = (0 0 0) to (5.5629359 5.2447863 4.5421182) with tilt (-1.854312 -1.854312 -2.6223932)
  triclinic box = (0 0 0) to (5.5629359 5.2447863 4.5421182) with tilt (-1.854312 -1.854312 -2.6223932)
  triclinic box = (0 0 0) to (5.5629359 5.2447863 4.5421182) with tilt (-1.854312 -1.854312 -2.6223932)
  triclinic box = (0 0 0) to (5.5629359 5.2447863 4.5421182) with tilt (-1.854312 -1.854312 -2.6223932)
  triclinic box = (0 0 0) to (5.5629359 5.2447863 4.5421182) with tilt (-1.854312 -1.854312 -2.6223932)
  triclinic box = (0 0 0) to (5.5629359 5.2447863 4.5421182) with tilt (-1.854312 -1.854312 -2.6223932)
echo none
run 0
Per MPI rank memory allocation (min/avg/max) = 3.599 | 3.599 | 3.599 Mbytes
    PotEng          Pxx           E_mol          E_coul    
-1303.6037      97928.738      0              0            
Loop time of 6.58e-07 on 1 procs for 0 steps with 8 atoms

152.0% CPU use with 1 MPI tasks x 1 OpenMP threads

MPI task timing breakdown:
Section |  min time  |  avg time  |  max time  |%varavg| %total
---------------------------------------------------------------
Pair    | 0          | 0          | 0          |   0.0 |  0.00
Neigh   | 0          | 0          | 0          |   0.0 |  0.00
Comm    | 0          | 0          | 0          |   0.0 |  0.00
Output  | 0          | 0          | 0          |   0.0 |  0.00
Modify  | 0          | 0          | 0          |   0.0 |  0.00
Other   |            | 6.58e-07   |            |       |100.00

Nlocal:              8 ave           8 max           8 min
Histogram: 1 0 0 0 0 0 0 0 0 0
Nghost:            720 ave         720 max         720 min
Histogram: 1 0 0 0 0 0 0 0 0 0
Neighs:            476 ave         476 max         476 min
Histogram: 1 0 0 0 0 0 0 0 0 0
FullNghs:          952 ave         952 max         952 min
Histogram: 1 0 0 0 0 0 0 0 0 0

Total # of neighbors = 952
Ave neighs/atom = 119
Neighbor list builds = 0
Dangerous builds = 0
set atom * x 0.0 y 0.0 z 0.0
Setting atom values ...
  8 settings made for x
  8 settings made for y
  8 settings made for z
change_box all     x final 0 5.562935947587544 y final 0 5.24478630912742 z final 0 4.54211818112517      xy final -1.8543119825291818 xz final -1.8543119825291818 yz final -2.6223931545637096 units box
Changing box ...
  triclinic box = (0 0 0) to (5.5629359 5.2447863 4.5421182) with tilt (-1.854312 -1.854312 -2.6223932)
  triclinic box = (0 0 0) to (5.5629359 5.2447863 4.5421182) with tilt (-1.854312 -1.854312 -2.6223932)
  triclinic box = (0 0 0) to (5.5629359 5.2447863 4.5421182) with tilt (-1.854312 -1.854312 -2.6223932)
  triclinic box = (0 0 0) to (5.5629359 5.2447863 4.5421182) with tilt (-1.854312 -1.854312 -2.6223932)
  triclinic box = (0 0 0) to (5.5629359 5.2447863 4.5421182) with tilt (-1.854312 -1.854312 -2.6223932)
  triclinic box = (0 0 0) to (5.5629359 5.2447863 4.5421182) with tilt (-1.854312 -1.854312 -2.6223932)
echo none
run 0
Per MPI rank memory allocation (min/avg/max) = 3.599 | 3.599 | 3.599 Mbytes
    PotEng          Pxx           E_mol          E_coul    
-1303.6586      107055.95      0              0            
Loop time of 6.23e-07 on 1 procs for 0 steps with 8 atoms

160.5% CPU use with 1 MPI tasks x 1 OpenMP threads

MPI task timing breakdown:
Section |  min time  |  avg time  |  max time  |%varavg| %total
---------------------------------------------------------------
Pair    | 0          | 0          | 0          |   0.0 |  0.00
Neigh   | 0          | 0          | 0          |   0.0 |  0.00
Comm    | 0          | 0          | 0          |   0.0 |  0.00
Output  | 0          | 0          | 0          |   0.0 |  0.00
Modify  | 0          | 0          | 0          |   0.0 |  0.00
Other   |            | 6.23e-07   |            |       |100.00

Nlocal:              8 ave           8 max           8 min
Histogram: 1 0 0 0 0 0 0 0 0 0
Nghost:            720 ave         720 max         720 min
Histogram: 1 0 0 0 0 0 0 0 0 0
Neighs:            524 ave         524 max         524 min
Histogram: 1 0 0 0 0 0 0 0 0 0
FullNghs:         1048 ave        1048 max        1048 min
Histogram: 1 0 0 0 0 0 0 0 0 0

Total # of neighbors = 1048
Ave neighs/atom = 131
Neighbor list builds = 0
Dangerous builds = 0
set atom * x 0.0 y 0.0 z 0.0
Setting atom values ...
  8 settings made for x
  8 settings made for y
  8 settings made for z
change_box all     x final 0 5.562935947587543 y final 0 5.244786309127418 z final 0 4.542118181125169      xy final -1.854311982529181 xz final -1.8543119825291807 yz final -2.6223931545637083 units box
Changing box ...
  triclinic box = (0 0 0) to (5.5629359 5.2447863 4.5421182) with tilt (-1.854312 -1.854312 -2.6223932)
  triclinic box = (0 0 0) to (5.5629359 5.2447863 4.5421182) with tilt (-1.854312 -1.854312 -2.6223932)
  triclinic box = (0 0 0) to (5.5629359 5.2447863 4.5421182) with tilt (-1.854312 -1.854312 -2.6223932)
  triclinic box = (0 0 0) to (5.5629359 5.2447863 4.5421182) with tilt (-1.854312 -1.854312 -2.6223932)
  triclinic box = (0 0 0) to (5.5629359 5.2447863 4.5421182) with tilt (-1.854312 -1.854312 -2.6223932)
  triclinic box = (0 0 0) to (5.5629359 5.2447863 4.5421182) with tilt (-1.854312 -1.854312 -2.6223932)
echo none
run 0
Per MPI rank memory allocation (min/avg/max) = 3.599 | 3.599 | 3.599 Mbytes
    PotEng          Pxx           E_mol          E_coul    
-1303.6586      107055.95      0              0            
Loop time of 6.25e-07 on 1 procs for 0 steps with 8 atoms

160.0% CPU use with 1 MPI tasks x 1 OpenMP threads

MPI task timing breakdown:
Section |  min time  |  avg time  |  max time  |%varavg| %total
---------------------------------------------------------------
Pair    | 0          | 0          | 0          |   0.0 |  0.00
Neigh   | 0          | 0          | 0          |   0.0 |  0.00
Comm    | 0          | 0          | 0          |   0.0 |  0.00
Output  | 0          | 0          | 0          |   0.0 |  0.00
Modify  | 0          | 0          | 0          |   0.0 |  0.00
Other   |            | 6.25e-07   |            |       |100.00

Nlocal:              8 ave           8 max           8 min
Histogram: 1 0 0 0 0 0 0 0 0 0
Nghost:            720 ave         720 max         720 min
Histogram: 1 0 0 0 0 0 0 0 0 0
Neighs:            524 ave         524 max         524 min
Histogram: 1 0 0 0 0 0 0 0 0 0
FullNghs:         1048 ave        1048 max        1048 min
Histogram: 1 0 0 0 0 0 0 0 0 0

Total # of neighbors = 1048
Ave neighs/atom = 131
Neighbor list builds = 0
Dangerous builds = 0
set atom * x 0.0 y 0.0 z 0.0
Setting atom values ...
  8 settings made for x
  8 settings made for y
  8 settings made for z
change_box all     x final 0 5.562935947587544 y final 0 5.24478630912742 z final 0 4.54211818112517      xy final -1.8543119825291818 xz final -1.8543119825291818 yz final -2.6223931545637096 units box
Changing box ...
  triclinic box = (0 0 0) to (5.5629359 5.2447863 4.5421182) with tilt (-1.854312 -1.854312 -2.6223932)
  triclinic box = (0 0 0) to (5.5629359 5.2447863 4.5421182) with tilt (-1.854312 -1.854312 -2.6223932)
  triclinic box = (0 0 0) to (5.5629359 5.2447863 4.5421182) with tilt (-1.854312 -1.854312 -2.6223932)
  triclinic box = (0 0 0) to (5.5629359 5.2447863 4.5421182) with tilt (-1.854312 -1.854312 -2.6223932)
  triclinic box = (0 0 0) to (5.5629359 5.2447863 4.5421182) with tilt (-1.854312 -1.854312 -2.6223932)
  triclinic box = (0 0 0) to (5.5629359 5.2447863 4.5421182) with tilt (-1.854312 -1.854312 -2.6223932)
echo none
run 0
Per MPI rank memory allocation (min/avg/max) = 3.599 | 3.599 | 3.599 Mbytes
    PotEng          Pxx           E_mol          E_coul    
-1303.6586      107055.95      0              0            
Loop time of 6.15e-07 on 1 procs for 0 steps with 8 atoms

162.6% CPU use with 1 MPI tasks x 1 OpenMP threads

MPI task timing breakdown:
Section |  min time  |  avg time  |  max time  |%varavg| %total
---------------------------------------------------------------
Pair    | 0          | 0          | 0          |   0.0 |  0.00
Neigh   | 0          | 0          | 0          |   0.0 |  0.00
Comm    | 0          | 0          | 0          |   0.0 |  0.00
Output  | 0          | 0          | 0          |   0.0 |  0.00
Modify  | 0          | 0          | 0          |   0.0 |  0.00
Other   |            | 6.15e-07   |            |       |100.00

Nlocal:              8 ave           8 max           8 min
Histogram: 1 0 0 0 0 0 0 0 0 0
Nghost:            720 ave         720 max         720 min
Histogram: 1 0 0 0 0 0 0 0 0 0
Neighs:            524 ave         524 max         524 min
Histogram: 1 0 0 0 0 0 0 0 0 0
FullNghs:         1048 ave        1048 max        1048 min
Histogram: 1 0 0 0 0 0 0 0 0 0

Total # of neighbors = 1048
Ave neighs/atom = 131
Neighbor list builds = 0
Dangerous builds = 0
set atom * x 0.0 y 0.0 z 0.0
Setting atom values ...
  8 settings made for x
  8 settings made for y
  8 settings made for z
change_box all     x final 0 5.510942850113461 y final 0 5.1957667467289985 z final 0 4.49966599480574      xy final -1.836980950037821 xz final -1.8369809500378211 yz final -2.597883373364499 units box
Changing box ...
  triclinic box = (0 0 0) to (5.5109429 5.2447863 4.5421182) with tilt (-1.854312 -1.854312 -2.6223932)
  triclinic box = (0 0 0) to (5.5109429 5.1957667 4.5421182) with tilt (-1.854312 -1.854312 -2.6223932)
  triclinic box = (0 0 0) to (5.5109429 5.1957667 4.499666) with tilt (-1.854312 -1.854312 -2.6223932)
  triclinic box = (0 0 0) to (5.5109429 5.1957667 4.499666) with tilt (-1.836981 -1.854312 -2.6223932)
  triclinic box = (0 0 0) to (5.5109429 5.1957667 4.499666) with tilt (-1.836981 -1.836981 -2.6223932)
  triclinic box = (0 0 0) to (5.5109429 5.1957667 4.499666) with tilt (-1.836981 -1.836981 -2.5978834)
echo none
run 0
Per MPI rank memory allocation (min/avg/max) = 3.599 | 3.599 | 3.599 Mbytes
    PotEng          Pxx           E_mol          E_coul    
-1303.3775      137318.9       0              0            
Loop time of 6.24e-07 on 1 procs for 0 steps with 8 atoms

160.3% CPU use with 1 MPI tasks x 1 OpenMP threads

MPI task timing breakdown:
Section |  min time  |  avg time  |  max time  |%varavg| %total
---------------------------------------------------------------
Pair    | 0          | 0          | 0          |   0.0 |  0.00
Neigh   | 0          | 0          | 0          |   0.0 |  0.00
Comm    | 0          | 0          | 0          |   0.0 |  0.00
Output  | 0          | 0          | 0          |   0.0 |  0.00
Modify  | 0          | 0          | 0          |   0.0 |  0.00
Other   |            | 6.24e-07   |            |       |100.00

Nlocal:              8 ave           8 max           8 min
Histogram: 1 0 0 0 0 0 0 0 0 0
Nghost:            720 ave         720 max         720 min
Histogram: 1 0 0 0 0 0 0 0 0 0
Neighs:            524 ave         524 max         524 min
Histogram: 1 0 0 0 0 0 0 0 0 0
FullNghs:         1048 ave        1048 max        1048 min
Histogram: 1 0 0 0 0 0 0 0 0 0

Total # of neighbors = 1048
Ave neighs/atom = 131
Neighbor list builds = 0
Dangerous builds = 0
set atom * x 0.0 y 0.0 z 0.0
Setting atom values ...
  8 settings made for x
  8 settings made for y
  8 settings made for z
change_box all     x final 0 5.5109428501134605 y final 0 5.195766746728997 z final 0 4.499665994805738      xy final -1.8369809500378207 xz final -1.8369809500378202 yz final -2.597883373364498 units box
Changing box ...
  triclinic box = (0 0 0) to (5.5109429 5.1957667 4.499666) with tilt (-1.836981 -1.836981 -2.5978834)
  triclinic box = (0 0 0) to (5.5109429 5.1957667 4.499666) with tilt (-1.836981 -1.836981 -2.5978834)
  triclinic box = (0 0 0) to (5.5109429 5.1957667 4.499666) with tilt (-1.836981 -1.836981 -2.5978834)
  triclinic box = (0 0 0) to (5.5109429 5.1957667 4.499666) with tilt (-1.836981 -1.836981 -2.5978834)
  triclinic box = (0 0 0) to (5.5109429 5.1957667 4.499666) with tilt (-1.836981 -1.836981 -2.5978834)
  triclinic box = (0 0 0) to (5.5109429 5.1957667 4.499666) with tilt (-1.836981 -1.836981 -2.5978834)
echo none
run 0
Per MPI rank memory allocation (min/avg/max) = 3.599 | 3.599 | 3.599 Mbytes
    PotEng          Pxx           E_mol          E_coul    
-1303.3775      137318.9       0              0            
Loop time of 6.14e-07 on 1 procs for 0 steps with 8 atoms

162.9% CPU use with 1 MPI tasks x 1 OpenMP threads

MPI task timing breakdown:
Section |  min time  |  avg time  |  max time  |%varavg| %total
---------------------------------------------------------------
Pair    | 0          | 0          | 0          |   0.0 |  0.00
Neigh   | 0          | 0          | 0          |   0.0 |  0.00
Comm    | 0          | 0          | 0          |   0.0 |  0.00
Output  | 0          | 0          | 0          |   0.0 |  0.00
Modify  | 0          | 0          | 0          |   0.0 |  0.00
Other   |            | 6.14e-07   |            |       |100.00

Nlocal:              8 ave           8 max           8 min
Histogram: 1 0 0 0 0 0 0 0 0 0
Nghost:            720 ave         720 max         720 min
Histogram: 1 0 0 0 0 0 0 0 0 0
Neighs:            524 ave         524 max         524 min
Histogram: 1 0 0 0 0 0 0 0 0 0
FullNghs:         1048 ave        1048 max        1048 min
Histogram: 1 0 0 0 0 0 0 0 0 0

Total # of neighbors = 1048
Ave neighs/atom = 131
Neighbor list builds = 0
Dangerous builds = 0
set atom * x 0.0 y 0.0 z 0.0
Setting atom values ...
  8 settings made for x
  8 settings made for y
  8 settings made for z
change_box all     x final 0 5.510942850113461 y final 0 5.1957667467289985 z final 0 4.49966599480574      xy final -1.836980950037821 xz final -1.8369809500378211 yz final -2.597883373364499 units box
Changing box ...
  triclinic box = (0 0 0) to (5.5109429 5.1957667 4.499666) with tilt (-1.836981 -1.836981 -2.5978834)
[...]
  triclinic box = (0 0 0) to (5.7233827 5.4413897 4.6806859) with tilt (-1.8950011 -1.8950011 -2.7748697)
  triclinic box = (0 0 0) to (5.7233827 5.4413897 4.6806859) with tilt (-1.8950011 -1.8950011 -2.7748697)
echo none
run 0
Per MPI rank memory allocation (min/avg/max) = 3.609 | 3.609 | 3.609 Mbytes
    PotEng          Pxx           E_mol          E_coul    
-1304.0791      1080.4975      0              0            
Loop time of 6.39e-07 on 1 procs for 0 steps with 8 atoms

156.5% CPU use with 1 MPI tasks x 1 OpenMP threads

MPI task timing breakdown:
Section |  min time  |  avg time  |  max time  |%varavg| %total
---------------------------------------------------------------
Pair    | 0          | 0          | 0          |   0.0 |  0.00
Neigh   | 0          | 0          | 0          |   0.0 |  0.00
Comm    | 0          | 0          | 0          |   0.0 |  0.00
Output  | 0          | 0          | 0          |   0.0 |  0.00
Modify  | 0          | 0          | 0          |   0.0 |  0.00
Other   |            | 6.39e-07   |            |       |100.00

Nlocal:              8 ave           8 max           8 min
Histogram: 1 0 0 0 0 0 0 0 0 0
Nghost:            680 ave         680 max         680 min
Histogram: 1 0 0 0 0 0 0 0 0 0
Neighs:            472 ave         472 max         472 min
Histogram: 1 0 0 0 0 0 0 0 0 0
FullNghs:          944 ave         944 max         944 min
Histogram: 1 0 0 0 0 0 0 0 0 0

Total # of neighbors = 944
Ave neighs/atom = 118
Neighbor list builds = 0
Dangerous builds = 0
set atom * x 0.0 y 0.0 z 0.0
Setting atom values ...
  8 settings made for x
  8 settings made for y
  8 settings made for z
change_box all     x final 0 5.723382724172339 y final 0 5.441389710266129 z final 0 4.680685872045665      xy final -1.8950010668247592 xz final -1.8950010668247583 yz final -2.7748696809439926 units box
Changing box ...
  triclinic box = (0 0 0) to (5.7233827 5.4413897 4.6806859) with tilt (-1.8950011 -1.8950011 -2.7748697)
  triclinic box = (0 0 0) to (5.7233827 5.4413897 4.6806859) with tilt (-1.8950011 -1.8950011 -2.7748697)
  triclinic box = (0 0 0) to (5.7233827 5.4413897 4.6806859) with tilt (-1.8950011 -1.8950011 -2.7748697)
  triclinic box = (0 0 0) to (5.7233827 5.4413897 4.6806859) with tilt (-1.8950011 -1.8950011 -2.7748697)
  triclinic box = (0 0 0) to (5.7233827 5.4413897 4.6806859) with tilt (-1.8950011 -1.8950011 -2.7748697)
  triclinic box = (0 0 0) to (5.7233827 5.4413897 4.6806859) with tilt (-1.8950011 -1.8950011 -2.7748697)
echo none
run 0
Per MPI rank memory allocation (min/avg/max) = 3.609 | 3.609 | 3.609 Mbytes
    PotEng          Pxx           E_mol          E_coul    
-1304.1172      12779.648      0              0            
Loop time of 6.61e-07 on 1 procs for 0 steps with 8 atoms

151.3% CPU use with 1 MPI tasks x 1 OpenMP threads

MPI task timing breakdown:
Section |  min time  |  avg time  |  max time  |%varavg| %total
---------------------------------------------------------------
Pair    | 0          | 0          | 0          |   0.0 |  0.00
Neigh   | 0          | 0          | 0          |   0.0 |  0.00
Comm    | 0          | 0          | 0          |   0.0 |  0.00
Output  | 0          | 0          | 0          |   0.0 |  0.00
Modify  | 0          | 0          | 0          |   0.0 |  0.00
Other   |            | 6.61e-07   |            |       |100.00

Nlocal:              8 ave           8 max           8 min
Histogram: 1 0 0 0 0 0 0 0 0 0
Nghost:            720 ave         720 max         720 min
Histogram: 1 0 0 0 0 0 0 0 0 0
Neighs:            472 ave         472 max         472 min
Histogram: 1 0 0 0 0 0 0 0 0 0
FullNghs:          944 ave         944 max         944 min
Histogram: 1 0 0 0 0 0 0 0 0 0

Total # of neighbors = 944
Ave neighs/atom = 118
Neighbor list builds = 0
Dangerous builds = 0
set atom * x 0.0 y 0.0 z 0.0
Setting atom values ...
  8 settings made for x
  8 settings made for y
  8 settings made for z
change_box all     x final 0 5.761778468294419 y final 0 5.432256835500831 z final 0 4.704472419425384      xy final -1.9205928227648075 xz final -1.9205928227648064 yz final -2.7161284177504155 units box
Changing box ...
  triclinic box = (0 0 0) to (5.7617785 5.4413897 4.6806859) with tilt (-1.8950011 -1.8950011 -2.7748697)
  triclinic box = (0 0 0) to (5.7617785 5.4322568 4.6806859) with tilt (-1.8950011 -1.8950011 -2.7748697)
  triclinic box = (0 0 0) to (5.7617785 5.4322568 4.7044724) with tilt (-1.8950011 -1.8950011 -2.7748697)
  triclinic box = (0 0 0) to (5.7617785 5.4322568 4.7044724) with tilt (-1.9205928 -1.8950011 -2.7748697)
  triclinic box = (0 0 0) to (5.7617785 5.4322568 4.7044724) with tilt (-1.9205928 -1.9205928 -2.7748697)
  triclinic box = (0 0 0) to (5.7617785 5.4322568 4.7044724) with tilt (-1.9205928 -1.9205928 -2.7161284)
echo none
run 0
Per MPI rank memory allocation (min/avg/max) = 3.609 | 3.609 | 3.609 Mbytes
    PotEng          Pxx           E_mol          E_coul    
-1304.127      -334.33528      0              0            
Loop time of 6.21e-07 on 1 procs for 0 steps with 8 atoms

161.0% CPU use with 1 MPI tasks x 1 OpenMP threads

MPI task timing breakdown:
Section |  min time  |  avg time  |  max time  |%varavg| %total
---------------------------------------------------------------
Pair    | 0          | 0          | 0          |   0.0 |  0.00
Neigh   | 0          | 0          | 0          |   0.0 |  0.00
Comm    | 0          | 0          | 0          |   0.0 |  0.00
Output  | 0          | 0          | 0          |   0.0 |  0.00
Modify  | 0          | 0          | 0          |   0.0 |  0.00
Other   |            | 6.21e-07   |            |       |100.00

Nlocal:              8 ave           8 max           8 min
Histogram: 1 0 0 0 0 0 0 0 0 0
Nghost:            600 ave         600 max         600 min
Histogram: 1 0 0 0 0 0 0 0 0 0
Neighs:            472 ave         472 max         472 min
Histogram: 1 0 0 0 0 0 0 0 0 0
FullNghs:          944 ave         944 max         944 min
Histogram: 1 0 0 0 0 0 0 0 0 0

Total # of neighbors = 944
Ave neighs/atom = 118
Neighbor list builds = 0
Dangerous builds = 0
set atom * x 0.0 y 0.0 z 0.0
Setting atom values ...
  8 settings made for x
  8 settings made for y
  8 settings made for z
change_box all     x final 0 5.800206223675135 y final 0 5.4232824012429335 z final 0 4.727729714209226      xy final -1.9462165908823594 xz final -1.9462165908823588 yz final -2.6571721346225328 units box
Changing box ...
  triclinic box = (0 0 0) to (5.8002062 5.4322568 4.7044724) with tilt (-1.9205928 -1.9205928 -2.7161284)
  triclinic box = (0 0 0) to (5.8002062 5.4232824 4.7044724) with tilt (-1.9205928 -1.9205928 -2.7161284)
  triclinic box = (0 0 0) to (5.8002062 5.4232824 4.7277297) with tilt (-1.9205928 -1.9205928 -2.7161284)
  triclinic box = (0 0 0) to (5.8002062 5.4232824 4.7277297) with tilt (-1.9462166 -1.9205928 -2.7161284)
  triclinic box = (0 0 0) to (5.8002062 5.4232824 4.7277297) with tilt (-1.9462166 -1.9462166 -2.7161284)
  triclinic box = (0 0 0) to (5.8002062 5.4232824 4.7277297) with tilt (-1.9462166 -1.9462166 -2.6571721)
echo none
run 0
Per MPI rank memory allocation (min/avg/max) = 3.609 | 3.609 | 3.609 Mbytes
    PotEng          Pxx           E_mol          E_coul    
-1304.1144     -15785.817      0              0            
Loop time of 6.16e-07 on 1 procs for 0 steps with 8 atoms

162.3% CPU use with 1 MPI tasks x 1 OpenMP threads

MPI task timing breakdown:
Section |  min time  |  avg time  |  max time  |%varavg| %total
---------------------------------------------------------------
Pair    | 0          | 0          | 0          |   0.0 |  0.00
Neigh   | 0          | 0          | 0          |   0.0 |  0.00
Comm    | 0          | 0          | 0          |   0.0 |  0.00
Output  | 0          | 0          | 0          |   0.0 |  0.00
Modify  | 0          | 0          | 0          |   0.0 |  0.00
Other   |            | 6.16e-07   |            |       |100.00

Nlocal:              8 ave           8 max           8 min
Histogram: 1 0 0 0 0 0 0 0 0 0
Nghost:            600 ave         600 max         600 min
Histogram: 1 0 0 0 0 0 0 0 0 0
Neighs:            472 ave         472 max         472 min
Histogram: 1 0 0 0 0 0 0 0 0 0
FullNghs:          944 ave         944 max         944 min
Histogram: 1 0 0 0 0 0 0 0 0 0

Total # of neighbors = 944
Ave neighs/atom = 118
Neighbor list builds = 0
Dangerous builds = 0
set atom * x 0.0 y 0.0 z 0.0
Setting atom values ...
  8 settings made for x
  8 settings made for y
  8 settings made for z
change_box all     x final 0 5.800206223675135 y final 0 5.4232824012429335 z final 0 4.727729714209226      xy final -1.9462165908823594 xz final -1.9462165908823588 yz final -2.6571721346225328 units box
Changing box ...
  triclinic box = (0 0 0) to (5.8002062 5.4232824 4.7277297) with tilt (-1.9462166 -1.9462166 -2.6571721)
  triclinic box = (0 0 0) to (5.8002062 5.4232824 4.7277297) with tilt (-1.9462166 -1.9462166 -2.6571721)
  triclinic box = (0 0 0) to (5.8002062 5.4232824 4.7277297) with tilt (-1.9462166 -1.9462166 -2.6571721)
  triclinic box = (0 0 0) to (5.8002062 5.4232824 4.7277297) with tilt (-1.9462166 -1.9462166 -2.6571721)
  triclinic box = (0 0 0) to (5.8002062 5.4232824 4.7277297) with tilt (-1.9462166 -1.9462166 -2.6571721)
  triclinic box = (0 0 0) to (5.8002062 5.4232824 4.7277297) with tilt (-1.9462166 -1.9462166 -2.6571721)
echo none
run 0
Per MPI rank memory allocation (min/avg/max) = 3.609 | 3.609 | 3.609 Mbytes
    PotEng          Pxx           E_mol          E_coul    
-1304.0794      530.88541      0              0            
Loop time of 6.32e-07 on 1 procs for 0 steps with 8 atoms

158.2% CPU use with 1 MPI tasks x 1 OpenMP threads

MPI task timing breakdown:
Section |  min time  |  avg time  |  max time  |%varavg| %total
---------------------------------------------------------------
Pair    | 0          | 0          | 0          |   0.0 |  0.00
Neigh   | 0          | 0          | 0          |   0.0 |  0.00
Comm    | 0          | 0          | 0          |   0.0 |  0.00
Output  | 0          | 0          | 0          |   0.0 |  0.00
Modify  | 0          | 0          | 0          |   0.0 |  0.00
Other   |            | 6.32e-07   |            |       |100.00

Nlocal:              8 ave           8 max           8 min
Histogram: 1 0 0 0 0 0 0 0 0 0
Nghost:            600 ave         600 max         600 min
Histogram: 1 0 0 0 0 0 0 0 0 0
Neighs:            472 ave         472 max         472 min
Histogram: 1 0 0 0 0 0 0 0 0 0
FullNghs:          944 ave         944 max         944 min
Histogram: 1 0 0 0 0 0 0 0 0 0

Total # of neighbors = 944
Ave neighs/atom = 118
Neighbor list builds = 0
Dangerous builds = 0
set atom * x 0.0 y 0.0 z 0.0
Setting atom values ...
  8 settings made for x
  8 settings made for y
  8 settings made for z
change_box all     x final 0 5.800206223675135 y final 0 5.4232824012429335 z final 0 4.727729714209226      xy final -1.9462165908823594 xz final -1.9462165908823588 yz final -2.6571721346225328 units box
Changing box ...
  triclinic box = (0 0 0) to (5.8002062 5.4232824 4.7277297) with tilt (-1.9462166 -1.9462166 -2.6571721)
  triclinic box = (0 0 0) to (5.8002062 5.4232824 4.7277297) with tilt (-1.9462166 -1.9462166 -2.6571721)
  triclinic box = (0 0 0) to (5.8002062 5.4232824 4.7277297) with tilt (-1.9462166 -1.9462166 -2.6571721)
  triclinic box = (0 0 0) to (5.8002062 5.4232824 4.7277297) with tilt (-1.9462166 -1.9462166 -2.6571721)
  triclinic box = (0 0 0) to (5.8002062 5.4232824 4.7277297) with tilt (-1.9462166 -1.9462166 -2.6571721)
  triclinic box = (0 0 0) to (5.8002062 5.4232824 4.7277297) with tilt (-1.9462166 -1.9462166 -2.6571721)
echo none
run 0
Per MPI rank memory allocation (min/avg/max) = 3.609 | 3.609 | 3.609 Mbytes
    PotEng          Pxx           E_mol          E_coul    
-1304.1171     -12687.587      0              0            
Loop time of 6.17e-07 on 1 procs for 0 steps with 8 atoms

162.1% CPU use with 1 MPI tasks x 1 OpenMP threads

MPI task timing breakdown:
Section |  min time  |  avg time  |  max time  |%varavg| %total
---------------------------------------------------------------
Pair    | 0          | 0          | 0          |   0.0 |  0.00
Neigh   | 0          | 0          | 0          |   0.0 |  0.00
Comm    | 0          | 0          | 0          |   0.0 |  0.00
Output  | 0          | 0          | 0          |   0.0 |  0.00
Modify  | 0          | 0          | 0          |   0.0 |  0.00
Other   |            | 6.17e-07   |            |       |100.00

Nlocal:              8 ave           8 max           8 min
Histogram: 1 0 0 0 0 0 0 0 0 0
Nghost:            600 ave         600 max         600 min
Histogram: 1 0 0 0 0 0 0 0 0 0
Neighs:            472 ave         472 max         472 min
Histogram: 1 0 0 0 0 0 0 0 0 0
FullNghs:          944 ave         944 max         944 min
Histogram: 1 0 0 0 0 0 0 0 0 0

Total # of neighbors = 944
Ave neighs/atom = 118
Neighbor list builds = 0
Dangerous builds = 0
set atom * x 0.0 y 0.0 z 0.0
Setting atom values ...
  8 settings made for x
  8 settings made for y
  8 settings made for z
change_box all     x final 0 5.838665358258691 y final 0 5.414467046785786 z final 0 4.750455114307627      xy final -1.971871531108337 xz final -1.9718715311083364 yz final -2.5980049283397646 units box
Changing box ...
  triclinic box = (0 0 0) to (5.8386654 5.4232824 4.7277297) with tilt (-1.9462166 -1.9462166 -2.6571721)
  triclinic box = (0 0 0) to (5.8386654 5.414467 4.7277297) with tilt (-1.9462166 -1.9462166 -2.6571721)
  triclinic box = (0 0 0) to (5.8386654 5.414467 4.7504551) with tilt (-1.9462166 -1.9462166 -2.6571721)
  triclinic box = (0 0 0) to (5.8386654 5.414467 4.7504551) with tilt (-1.9718715 -1.9462166 -2.6571721)
  triclinic box = (0 0 0) to (5.8386654 5.414467 4.7504551) with tilt (-1.9718715 -1.9718715 -2.6571721)
  triclinic box = (0 0 0) to (5.8386654 5.414467 4.7504551) with tilt (-1.9718715 -1.9718715 -2.5980049)
echo none
run 0
Per MPI rank memory allocation (min/avg/max) = 3.609 | 3.609 | 3.609 Mbytes
    PotEng          Pxx           E_mol          E_coul    
-1304.0781     -30005.413      0              0            
Loop time of 6.11e-07 on 1 procs for 0 steps with 8 atoms

163.7% CPU use with 1 MPI tasks x 1 OpenMP threads

MPI task timing breakdown:
Section |  min time  |  avg time  |  max time  |%varavg| %total
---------------------------------------------------------------
Pair    | 0          | 0          | 0          |   0.0 |  0.00
Neigh   | 0          | 0          | 0          |   0.0 |  0.00
Comm    | 0          | 0          | 0          |   0.0 |  0.00
Output  | 0          | 0          | 0          |   0.0 |  0.00
Modify  | 0          | 0          | 0          |   0.0 |  0.00
Other   |            | 6.11e-07   |            |       |100.00

Nlocal:              8 ave           8 max           8 min
Histogram: 1 0 0 0 0 0 0 0 0 0
Nghost:            600 ave         600 max         600 min
Histogram: 1 0 0 0 0 0 0 0 0 0
Neighs:            472 ave         472 max         472 min
Histogram: 1 0 0 0 0 0 0 0 0 0
FullNghs:          944 ave         944 max         944 min
Histogram: 1 0 0 0 0 0 0 0 0 0

Total # of neighbors = 944
Ave neighs/atom = 118
Neighbor list builds = 0
Dangerous builds = 0
set atom * x 0.0 y 0.0 z 0.0
Setting atom values ...
  8 settings made for x
  8 settings made for y
  8 settings made for z
change_box all     x final 0 5.838665358258691 y final 0 5.414467046785786 z final 0 4.750455114307627      xy final -1.971871531108337 xz final -1.9718715311083364 yz final -2.5980049283397646 units box
Changing box ...
  triclinic box = (0 0 0) to (5.8386654 5.414467 4.7504551) with tilt (-1.9718715 -1.9718715 -2.5980049)
  triclinic box = (0 0 0) to (5.8386654 5.414467 4.7504551) with tilt (-1.9718715 -1.9718715 -2.5980049)
  triclinic box = (0 0 0) to (5.8386654 5.414467 4.7504551) with tilt (-1.9718715 -1.9718715 -2.5980049)
  triclinic box = (0 0 0) to (5.8386654 5.414467 4.7504551) with tilt (-1.9718715 -1.9718715 -2.5980049)
  triclinic box = (0 0 0) to (5.8386654 5.414467 4.7504551) with tilt (-1.9718715 -1.9718715 -2.5980049)
  triclinic box = (0 0 0) to (5.8386654 5.414467 4.7504551) with tilt (-1.9718715 -1.9718715 -2.5980049)
echo none
run 0
Per MPI rank memory allocation (min/avg/max) = 3.609 | 3.609 | 3.609 Mbytes
    PotEng          Pxx           E_mol          E_coul    
-1304.0682     -15174.599      0              0            
Loop time of 5.92e-07 on 1 procs for 0 steps with 8 atoms

168.9% CPU use with 1 MPI tasks x 1 OpenMP threads

MPI task timing breakdown:
Section |  min time  |  avg time  |  max time  |%varavg| %total
---------------------------------------------------------------
Pair    | 0          | 0          | 0          |   0.0 |  0.00
Neigh   | 0          | 0          | 0          |   0.0 |  0.00
Comm    | 0          | 0          | 0          |   0.0 |  0.00
Output  | 0          | 0          | 0          |   0.0 |  0.00
Modify  | 0          | 0          | 0          |   0.0 |  0.00
Other   |            | 5.92e-07   |            |       |100.00

Nlocal:              8 ave           8 max           8 min
Histogram: 1 0 0 0 0 0 0 0 0 0
Nghost:            600 ave         600 max         600 min
Histogram: 1 0 0 0 0 0 0 0 0 0
Neighs:            472 ave         472 max         472 min
Histogram: 1 0 0 0 0 0 0 0 0 0
FullNghs:          944 ave         944 max         944 min
Histogram: 1 0 0 0 0 0 0 0 0 0

Total # of neighbors = 944
Ave neighs/atom = 118
Neighbor list builds = 0
Dangerous builds = 0
set atom * x 0.0 y 0.0 z 0.0
Setting atom values ...
  8 settings made for x
  8 settings made for y
  8 settings made for z
change_box all     x final 0 5.838665358258691 y final 0 5.414467046785786 z final 0 4.750455114307627      xy final -1.971871531108337 xz final -1.9718715311083364 yz final -2.5980049283397646 units box
Changing box ...
  triclinic box = (0 0 0) to (5.8386654 5.414467 4.7504551) with tilt (-1.9718715 -1.9718715 -2.5980049)
  triclinic box = (0 0 0) to (5.8386654 5.414467 4.7504551) with tilt (-1.9718715 -1.9718715 -2.5980049)
  triclinic box = (0 0 0) to (5.8386654 5.414467 4.7504551) with tilt (-1.9718715 -1.9718715 -2.5980049)
  triclinic box = (0 0 0) to (5.8386654 5.414467 4.7504551) with tilt (-1.9718715 -1.9718715 -2.5980049)
  triclinic box = (0 0 0) to (5.8386654 5.414467 4.7504551) with tilt (-1.9718715 -1.9718715 -2.5980049)
  triclinic box = (0 0 0) to (5.8386654 5.414467 4.7504551) with tilt (-1.9718715 -1.9718715 -2.5980049)
echo none
run 0
Per MPI rank memory allocation (min/avg/max) = 3.609 | 3.609 | 3.609 Mbytes
    PotEng          Pxx           E_mol          E_coul    
-1304.0884     -24283.322      0              0            
Loop time of 6.43e-07 on 1 procs for 0 steps with 8 atoms

155.5% CPU use with 1 MPI tasks x 1 OpenMP threads

MPI task timing breakdown:
Section |  min time  |  avg time  |  max time  |%varavg| %total
---------------------------------------------------------------
Pair    | 0          | 0          | 0          |   0.0 |  0.00
Neigh   | 0          | 0          | 0          |   0.0 |  0.00
Comm    | 0          | 0          | 0          |   0.0 |  0.00
Output  | 0          | 0          | 0          |   0.0 |  0.00
Modify  | 0          | 0          | 0          |   0.0 |  0.00
Other   |            | 6.43e-07   |            |       |100.00

Nlocal:              8 ave           8 max           8 min
Histogram: 1 0 0 0 0 0 0 0 0 0
Nghost:            600 ave         600 max         600 min
Histogram: 1 0 0 0 0 0 0 0 0 0
Neighs:            472 ave         472 max         472 min
Histogram: 1 0 0 0 0 0 0 0 0 0
FullNghs:          944 ave         944 max         944 min
Histogram: 1 0 0 0 0 0 0 0 0 0

Total # of neighbors = 944
Ave neighs/atom = 118
Neighbor list builds = 0
Dangerous builds = 0
Total wall time: 0:00:13
