8
Lattice="-3.241229924448896 3.241229924448898 3.241229924448895 3.2412299244488962 -3.241229924448897 3.241229924448896 3.2412299244488967 3.2412299244488962 -3.241229924448896" Properties=species:S:1:pos:R:3:forces:R:3 cutoff=-1.0 nneightol=1.2 n_minim_iter=2 energy=-1304.0175402575737 stress="-0.030999966435091668 -3.8449163676314777e-16 -4.0729291039354725e-16 -3.8449163676314777e-16 -0.030999966435091293 -3.2733951571835197e-16 -4.0729291039354725e-16 -3.2733951571835197e-16 -0.030999966435091536" free_energy=-1304.0175402575737 pbc="T T T"
Si       2.57591937       0.66531055      -0.66531055       0.00045480      -0.00045480       0.00045480
Si       3.90654047      -0.66531055       0.66531055      -0.00045480       0.00045480      -0.00045480
Si       0.66531055       0.66531055       0.66531055      -0.00045480      -0.00045480      -0.00045480
Si       0.66531055      -0.66531055       2.57591938      -0.00045480       0.00045480       0.00045480
Si      -0.66531055       2.57591938       0.66531055       0.00045480       0.00045480      -0.00045480
Si       0.66531055       3.90654047      -0.66531055      -0.00045480      -0.00045480       0.00045480
Si      -0.66531055       0.66531055       3.90654047       0.00045480      -0.00045480      -0.00045480
Si       2.57591937       2.57591938       2.57591938       0.00045480       0.00045480       0.00045480
