8
Lattice="-3.559382207452543 3.559382207452542 3.559382207452542 3.559382207452541 -3.559382207452544 3.559382207452542 3.559382207452543 3.559382207452544 -3.5593822074525403" Properties=species:S:1:pos:R:3:forces:R:3 cutoff=-1.0 nneightol=1.2 n_minim_iter=1 energy=-1302.6237326788466 stress="0.08084271365944776 -3.2780119990947397e-16 4.627933065213857e-17 -3.2780119990947397e-16 0.0808427136594478 1.4830565232448654e-16 4.627933065213857e-17 1.4830565232448654e-16 0.08084271365944769" free_energy=-1302.6237326788466 pbc="T T T"
Si       2.87034954       0.68903267      -0.68903267       0.04758347      -0.04758347       0.04758347
Si       4.24841487      -0.68903267       0.68903267      -0.04758347       0.04758347      -0.04758347
Si       0.68903267       0.68903267       0.68903267      -0.04758347      -0.04758347      -0.04758347
Si       0.68903267      -0.68903267       2.87034954      -0.04758347       0.04758347       0.04758347
Si      -0.68903267       2.87034954       0.68903267       0.04758347       0.04758347      -0.04758347
Si       0.68903267       4.24841487      -0.68903267      -0.04758347      -0.04758347       0.04758347
Si      -0.68903267       0.68903267       4.24841487       0.04758347      -0.04758347      -0.04758347
Si       2.87034954       2.87034954       2.87034954       0.04758347       0.04758347       0.04758347
8
Lattice="-3.559382207452544 3.559382207452543 3.559382207452543 3.559382207452542 -3.5593822074525447 3.559382207452543 3.559382207452544 3.5593822074525447 -3.559382207452541" Properties=species:S:1:pos:R:3:forces:R:3 cutoff=-1.0 nneightol=1.2 n_minim_iter=2 energy=-1302.6257931197895 stress="0.07985867696610029 -1.1852743250693413e-16 1.1809019285567106e-16 -1.1852743250693413e-16 0.07985867696610044 -8.213975212830063e-17 1.1809019285567106e-16 -8.213975212830063e-17 0.07985867696610013" free_energy=-1302.6257931197895 pbc="T T T"
Si       2.87371400       0.68566821      -0.68566821       0.00289010      -0.00289010       0.00289010
Si       4.24505041      -0.68566821       0.68566821      -0.00289010       0.00289010      -0.00289010
Si       0.68566821       0.68566821       0.68566821      -0.00289010      -0.00289010      -0.00289010
Si       0.68566821      -0.68566821       2.87371400      -0.00289010       0.00289010       0.00289010
Si      -0.68566821       2.87371400       0.68566821       0.00289010       0.00289010      -0.00289010
Si       0.68566821       4.24505041      -0.68566821      -0.00289010      -0.00289010       0.00289010
Si      -0.68566821       0.68566821       4.24505041       0.00289010      -0.00289010      -0.00289010
Si       2.87371400       2.87371400       2.87371400       0.00289010       0.00289010       0.00289010
