8
Lattice="-3.4852067171137806 3.4852067171137797 3.48520671711378 3.4852067171137797 -3.4852067171137806 3.48520671711378 3.4852067171137806 3.4852067171137806 -3.4852067171137797" Properties=species:S:1:pos:R:3:forces:R:3 cutoff=-1.0 nneightol=1.2 n_minim_iter=2 energy=-1303.6086760168196 stress="0.051803064481390756 -3.8281358461719454e-16 -1.3134406557579403e-16 -3.8281358461719454e-16 0.05180306448139098 -2.830683109495154e-16 -1.3134406557579403e-16 -2.830683109495154e-16 0.051803064481390826" free_energy=-1303.6086760168196 pbc="T T T"
Si       2.80030403       0.68490269      -0.68490269       0.00362757      -0.00362757       0.00362757
Si       4.17010941      -0.68490269       0.68490269      -0.00362757       0.00362757      -0.00362757
Si       0.68490269       0.68490269       0.68490269      -0.00362757      -0.00362757      -0.00362757
Si       0.68490269      -0.68490269       2.80030403      -0.00362757       0.00362757       0.00362757
Si      -0.68490269       2.80030403       0.68490269       0.00362757       0.00362757      -0.00362757
Si       0.68490269       4.17010941      -0.68490269      -0.00362757      -0.00362757       0.00362757
Si      -0.68490269       0.68490269       4.17010941       0.00362757      -0.00362757      -0.00362757
Si       2.80030403       2.80030403       2.80030403       0.00362757       0.00362757       0.00362757
