8
Lattice="-3.535002112125654 3.535002112125652 3.535002112125653 3.535002112125652 -3.5350021121256536 3.535002112125653 3.535002112125654 3.5350021121256536 -3.5350021121256514" Properties=species:S:1:pos:R:3:forces:R:3 cutoff=-1.0 nneightol=1.2 n_minim_iter=1 energy=-1302.9070351708124 stress="0.07501059098258554 3.1614627094801236e-16 -5.34571253616004e-17 3.1614627094801236e-16 0.07501059098258547 2.6314329100425225e-16 -5.34571253616004e-17 2.6314329100425225e-16 0.07501059098258547" free_energy=-1302.9070351708124 pbc="T T T"
Si       2.84734925       0.68765286      -0.68765286       0.04818389      -0.04818389       0.04818389
Si       4.22265497      -0.68765286       0.68765286      -0.04818389       0.04818389      -0.04818389
Si       0.68765286       0.68765286       0.68765286      -0.04818389      -0.04818389      -0.04818389
Si       0.68765286      -0.68765286       2.84734925      -0.04818389       0.04818389       0.04818389
Si      -0.68765286       2.84734925       0.68765286       0.04818389       0.04818389      -0.04818389
Si       0.68765286       4.22265497      -0.68765286      -0.04818389      -0.04818389       0.04818389
Si      -0.68765286       0.68765286       4.22265497       0.04818389      -0.04818389      -0.04818389
Si       2.84734925       2.84734925       2.84734925       0.04818389       0.04818389       0.04818389
8
Lattice="-3.535002112125655 3.5350021121256527 3.535002112125654 3.5350021121256527 -3.5350021121256545 3.535002112125654 3.535002112125655 3.5350021121256545 -3.5350021121256523" Properties=species:S:1:pos:R:3:forces:R:3 cutoff=-1.0 nneightol=1.2 n_minim_iter=2 energy=-1302.9091080356452 stress="0.07403461969571797 -6.867216865764251e-16 -8.434294177512386e-17 -6.867216865764251e-16 0.07403461969571809 -2.5871488725147e-16 -8.434294177512386e-17 -2.5871488725147e-16 0.07403461969571823" free_energy=-1302.9091080356452 pbc="T T T"
Si       2.85068899       0.68431312      -0.68431312       0.00296716      -0.00296716       0.00296716
Si       4.21931523      -0.68431312       0.68431312      -0.00296716       0.00296716      -0.00296716
Si       0.68431312       0.68431312       0.68431312      -0.00296716      -0.00296716      -0.00296716
Si       0.68431312      -0.68431312       2.85068900      -0.00296716       0.00296716       0.00296716
Si      -0.68431312       2.85068899       0.68431312       0.00296716       0.00296716      -0.00296716
Si       0.68431312       4.21931523      -0.68431312      -0.00296716      -0.00296716       0.00296716
Si      -0.68431312       0.68431312       4.21931523       0.00296716      -0.00296716      -0.00296716
Si       2.85068899       2.85068899       2.85068900       0.00296716       0.00296716       0.00296716
