8
Lattice="-3.2412299244488953 3.241229924448897 3.241229924448895 3.2412299244488953 -3.2412299244488962 3.2412299244488962 3.241229924448896 3.2412299244488953 -3.2412299244488962" Properties=species:S:1:pos:R:3:forces:R:3 cutoff=-1.0 nneightol=1.2 n_minim_iter=1 energy=-1303.8683683313425 stress="-0.050170226651375036 -6.74211335978695e-17 3.980806219976983e-16 -6.74211335978695e-17 -0.050170226651374814 -5.082449518946976e-16 3.980806219976983e-16 -5.082449518946976e-16 -0.05017022665137511" free_energy=-1303.8683683313425 pbc="T T T"
Si       2.57591937       0.66531055      -0.66531055      -0.06067934       0.06067934      -0.06067934
Si       3.90654047      -0.66531055       0.66531055       0.06067934      -0.06067934       0.06067934
Si       0.66531055       0.66531055       0.66531055       0.06067934       0.06067934       0.06067934
Si       0.66531055      -0.66531055       2.57591938       0.06067934      -0.06067934      -0.06067934
Si      -0.66531055       2.57591938       0.66531055      -0.06067934      -0.06067934       0.06067934
Si       0.66531055       3.90654047      -0.66531055       0.06067934       0.06067934      -0.06067934
Si      -0.66531055       0.66531055       3.90654047      -0.06067934       0.06067934       0.06067934
Si       2.57591937       2.57591938       2.57591938      -0.06067934      -0.06067934      -0.06067934
8
Lattice="-3.2412299244488967 3.2412299244488985 3.2412299244488962 3.2412299244488967 -3.2412299244488976 3.2412299244488976 3.241229924448897 3.2412299244488967 -3.2412299244488976" Properties=species:S:1:pos:R:3:forces:R:3 cutoff=-1.0 nneightol=1.2 n_minim_iter=2 energy=-1303.8711336771787 stress="-0.04866810310130416 2.069411556458604e-16 -3.9910588398912104e-16 2.069411556458604e-16 -0.0486681031013046 2.0710140755157094e-16 -3.9910588398912104e-16 2.0710140755157094e-16 -0.04866810310130468" free_energy=-1303.8711336771787 pbc="T T T"
Si       2.57202541       0.66920452      -0.66920452       0.00044099      -0.00044099       0.00044099
Si       3.91043444      -0.66920452       0.66920452      -0.00044099       0.00044099      -0.00044099
Si       0.66920452       0.66920452       0.66920452      -0.00044099      -0.00044099      -0.00044099
Si       0.66920452      -0.66920452       2.57202541      -0.00044099       0.00044099       0.00044099
Si      -0.66920452       2.57202541       0.66920452       0.00044099       0.00044099      -0.00044099
Si       0.66920452       3.91043444      -0.66920452      -0.00044099      -0.00044099       0.00044099
Si      -0.66920452       0.66920452       3.91043444       0.00044099      -0.00044099      -0.00044099
Si       2.57202541       2.57202541       2.57202541       0.00044099       0.00044099       0.00044099
