8
Lattice="-3.022384291593094 3.0223842915930934 3.022384291593093 3.0223842915930943 -3.0223842915930925 3.0223842915930943 3.022384291593094 3.022384291593093 -3.0223842915930943" Properties=species:S:1:pos:R:3:forces:R:3 cutoff=-1.0 nneightol=1.2 n_minim_iter=2 energy=-1300.7137066399882 stress="-0.2564845235171494 1.1780959691472734e-15 1.9112740497453782e-15 1.1780959691472734e-15 -0.25648452351715006 1.1156543132405711e-18 1.9112740497453782e-15 1.1156543132405711e-18 -0.25648452351714995" free_energy=-1300.7137066399882 pbc="T T T"
Si       2.37466991       0.64771439      -0.64771439      -0.00046765       0.00046765      -0.00046765
Si       3.67009868      -0.64771439       0.64771439       0.00046765      -0.00046765       0.00046765
Si       0.64771438       0.64771439       0.64771439       0.00046765       0.00046765       0.00046765
Si       0.64771438      -0.64771439       2.37466991       0.00046765      -0.00046765      -0.00046765
Si      -0.64771439       2.37466991       0.64771439      -0.00046765      -0.00046765       0.00046765
Si       0.64771438       3.67009868      -0.64771439       0.00046765       0.00046765      -0.00046765
Si      -0.64771439       0.64771439       3.67009868      -0.00046765       0.00046765       0.00046765
Si       2.37466991       2.37466991       2.37466991      -0.00046765      -0.00046765      -0.00046765
