8
Lattice="-3.535002112125655 3.5350021121256527 3.535002112125654 3.5350021121256527 -3.5350021121256545 3.535002112125654 3.535002112125655 3.5350021121256545 -3.5350021121256523" Properties=species:S:1:pos:R:3:forces:R:3 cutoff=-1.0 nneightol=1.2 n_minim_iter=2 energy=-1302.9091080356452 stress="0.07403461969571797 -6.867216865764251e-16 -8.434294177512386e-17 -6.867216865764251e-16 0.07403461969571809 -2.5871488725147e-16 -8.434294177512386e-17 -2.5871488725147e-16 0.07403461969571823" free_energy=-1302.9091080356452 pbc="T T T"
Si       2.85068899       0.68431312      -0.68431312       0.00296716      -0.00296716       0.00296716
Si       4.21931523      -0.68431312       0.68431312      -0.00296716       0.00296716      -0.00296716
Si       0.68431312       0.68431312       0.68431312      -0.00296716      -0.00296716      -0.00296716
Si       0.68431312      -0.68431312       2.85068900      -0.00296716       0.00296716       0.00296716
Si      -0.68431312       2.85068899       0.68431312       0.00296716       0.00296716      -0.00296716
Si       0.68431312       4.21931523      -0.68431312      -0.00296716      -0.00296716       0.00296716
Si      -0.68431312       0.68431312       4.21931523       0.00296716      -0.00296716      -0.00296716
Si       2.85068899       2.85068899       2.85068900       0.00296716       0.00296716       0.00296716
