8
Lattice="-3.211762566824315 3.2117625668243166 3.2117625668243144 3.211762566824315 -3.2117625668243157 3.2117625668243157 3.2117625668243153 3.211762566824315 -3.2117625668243157" Properties=species:S:1:pos:R:3:forces:R:3 cutoff=-1.0 nneightol=1.2 n_minim_iter=2 energy=-1303.8711336771787 stress="-0.04866810310130416 2.069411556458604e-16 -3.9910588398912104e-16 2.069411556458604e-16 -0.0486681031013046 2.0710140755157094e-16 -3.9910588398912104e-16 2.0710140755157094e-16 -0.04866810310130468" free_energy=-1303.8711336771787 pbc="T T T"
Si       2.54864206       0.66312050      -0.66312050       0.00044099      -0.00044099       0.00044099
Si       3.87488307      -0.66312050       0.66312050      -0.00044099       0.00044099      -0.00044099
Si       0.66312050       0.66312050       0.66312050      -0.00044099      -0.00044099      -0.00044099
Si       0.66312050      -0.66312050       2.54864206      -0.00044099       0.00044099       0.00044099
Si      -0.66312050       2.54864206       0.66312050       0.00044099       0.00044099      -0.00044099
Si       0.66312050       3.87488307      -0.66312050      -0.00044099      -0.00044099       0.00044099
Si      -0.66312050       0.66312050       3.87488307       0.00044099      -0.00044099      -0.00044099
Si       2.54864206       2.54864206       2.54864206       0.00044099       0.00044099       0.00044099
