8
Lattice="-3.1199472054792285 3.11994720547923 3.1199472054792285 3.1199472054792285 -3.1199472054792294 3.11994720547923 3.11994720547923 3.1199472054792285 -3.11994720547923" Properties=species:S:1:pos:R:3:forces:R:3 cutoff=-1.0 nneightol=1.2 n_minim_iter=1 energy=-1302.6276150966316 stress="-0.12211932839423408 6.670238579977513e-16 7.638335576364795e-18 6.670238579977513e-16 -0.12211932839423369 -2.892401698883333e-17 7.638335576364795e-18 -2.892401698883333e-17 -0.12211932839423394" free_energy=-1302.6276150966316 pbc="T T T"
Si       2.46486587       0.65508133      -0.65508133      -0.05142805       0.05142805      -0.05142805
Si       3.77502854      -0.65508133       0.65508133       0.05142805      -0.05142805       0.05142805
Si       0.65508133       0.65508133       0.65508133       0.05142805       0.05142805       0.05142805
Si       0.65508133      -0.65508133       2.46486587       0.05142805      -0.05142805      -0.05142805
Si      -0.65508133       2.46486587       0.65508133      -0.05142805      -0.05142805       0.05142805
Si       0.65508133       3.77502854      -0.65508133       0.05142805       0.05142805      -0.05142805
Si      -0.65508133       0.65508133       3.77502854      -0.05142805       0.05142805       0.05142805
Si       2.46486587       2.46486587       2.46486587      -0.05142805      -0.05142805      -0.05142805
8
Lattice="-3.119947205479228 3.1199472054792294 3.119947205479228 3.119947205479228 -3.119947205479229 3.1199472054792294 3.1199472054792294 3.119947205479228 -3.1199472054792294" Properties=species:S:1:pos:R:3:forces:R:3 cutoff=-1.0 nneightol=1.2 n_minim_iter=2 energy=-1302.6297697575717 stress="-0.1209749294276629 5.880322671288465e-16 -4.576519024720258e-16 5.880322671288465e-16 -0.12097492942766326 -3.281296131495092e-17 -4.576519024720258e-16 -3.281296131495092e-17 -0.12097492942766401" free_energy=-1302.6297697575717 pbc="T T T"
Si       2.46129523       0.65865198      -0.65865198       0.00026911      -0.00026911       0.00026911
Si       3.77859918      -0.65865198       0.65865198      -0.00026911       0.00026911      -0.00026911
Si       0.65865198       0.65865198       0.65865198      -0.00026911      -0.00026911      -0.00026911
Si       0.65865198      -0.65865198       2.46129523      -0.00026911       0.00026911       0.00026911
Si      -0.65865198       2.46129523       0.65865198       0.00026911       0.00026911      -0.00026911
Si       0.65865198       3.77859918      -0.65865198      -0.00026911      -0.00026911       0.00026911
Si      -0.65865198       0.65865198       3.77859918       0.00026911      -0.00026911      -0.00026911
Si       2.46129523       2.46129523       2.46129523       0.00026911       0.00026911       0.00026911
