8
Lattice="-3.38110788572571 3.3811078857257093 3.3811078857257097 3.3811078857257093 -3.38110788572571 3.3811078857257097 3.38110788572571 3.38110788572571 -3.3811078857257093" Properties=species:S:1:pos:R:3:forces:R:3 cutoff=-1.0 nneightol=1.2 n_minim_iter=1 energy=-1304.0298550497926 stress="0.026059307341329527 8.782201540556995e-16 1.373502440418255e-16 8.782201540556995e-16 0.026059307341329364 8.262545116062439e-17 1.373502440418255e-16 8.262545116062439e-17 0.026059307341329014" free_energy=-1304.0298550497926 pbc="T T T"
Si       2.70002125       0.68108663      -0.68108663       0.06610044      -0.06610044       0.06610044
Si       4.06219452      -0.68108663       0.68108663      -0.06610044       0.06610044      -0.06610044
Si       0.68108663       0.68108663       0.68108663      -0.06610044      -0.06610044      -0.06610044
Si       0.68108663      -0.68108663       2.70002126      -0.06610044       0.06610044       0.06610044
Si      -0.68108663       2.70002125       0.68108663       0.06610044       0.06610044      -0.06610044
Si       0.68108663       4.06219452      -0.68108663      -0.06610044      -0.06610044       0.06610044
Si      -0.68108663       0.68108663       4.06219452       0.06610044      -0.06610044      -0.06610044
Si       2.70002125       2.70002125       2.70002126       0.06610044       0.06610044       0.06610044
8
Lattice="-3.3811078857257097 3.381107885725709 3.3811078857257097 3.381107885725709 -3.3811078857257097 3.3811078857257097 3.3811078857257097 3.3811078857257097 -3.3811078857257093" Properties=species:S:1:pos:R:3:forces:R:3 cutoff=-1.0 nneightol=1.2 n_minim_iter=2 energy=-1304.033677044368 stress="0.02427171952561434 3.4646601090490976e-16 -4.636296675705188e-16 3.4646601090490976e-16 0.02427171952561398 1.2502291260157664e-16 -4.636296675705188e-16 1.2502291260157664e-16 0.024271719525614313" free_energy=-1304.033677044368 pbc="T T T"
Si       2.70448484       0.67662305      -0.67662305       0.00410752      -0.00410752       0.00410752
Si       4.05773093      -0.67662305       0.67662305      -0.00410752       0.00410752      -0.00410752
Si       0.67662305       0.67662305       0.67662305      -0.00410752      -0.00410752      -0.00410752
Si       0.67662305      -0.67662305       2.70448484      -0.00410752       0.00410752       0.00410752
Si      -0.67662305       2.70448484       0.67662305       0.00410752       0.00410752      -0.00410752
Si       0.67662305       4.05773093      -0.67662305      -0.00410752      -0.00410752       0.00410752
Si      -0.67662305       0.67662305       4.05773093       0.00410752      -0.00410752      -0.00410752
Si       2.70448484       2.70448484       2.70448484       0.00410752       0.00410752       0.00410752
