8
Lattice="-3.326564349680773 3.3265643496807726 3.3265643496807717 3.326564349680773 -3.3265643496807726 3.3265643496807726 3.326564349680773 3.326564349680772 -3.3265643496807726" Properties=species:S:1:pos:R:3:forces:R:3 cutoff=-1.0 nneightol=1.2 n_minim_iter=1 energy=-1304.1270478026127 stress="0.00020867567165455702 -2.670857223502539e-16 1.8481812047254142e-16 -2.670857223502539e-16 0.0002086756716538049 -6.472198576761731e-16 1.8481812047254142e-16 -6.472198576761731e-16 0.00020867567165432953" free_energy=-1304.1270478026127 pbc="T T T"
Si       2.65207557       0.67448878      -0.67448878       0.00340337      -0.00340337       0.00340337
Si       4.00105313      -0.67448878       0.67448878      -0.00340337       0.00340337      -0.00340337
Si       0.67448878       0.67448878       0.67448878      -0.00340337      -0.00340337      -0.00340337
Si       0.67448878      -0.67448878       2.65207557      -0.00340337       0.00340337       0.00340337
Si      -0.67448878       2.65207557       0.67448878       0.00340337       0.00340337      -0.00340337
Si       0.67448878       4.00105313      -0.67448878      -0.00340337      -0.00340337       0.00340337
Si      -0.67448878       0.67448878       4.00105313       0.00340337      -0.00340337      -0.00340337
Si       2.65207557       2.65207557       2.65207557       0.00340337       0.00340337       0.00340337
