8
Lattice="-3.2412299244488967 3.2412299244488985 3.2412299244488962 3.2412299244488967 -3.2412299244488976 3.2412299244488976 3.241229924448897 3.2412299244488967 -3.2412299244488976" Properties=species:S:1:pos:R:3:forces:R:3 cutoff=-1.0 nneightol=1.2 n_minim_iter=2 energy=-1303.8711336771787 stress="-0.04866810310130416 2.069411556458604e-16 -3.9910588398912104e-16 2.069411556458604e-16 -0.0486681031013046 2.0710140755157094e-16 -3.9910588398912104e-16 2.0710140755157094e-16 -0.04866810310130468" free_energy=-1303.8711336771787 pbc="T T T"
Si       2.57202541       0.66920452      -0.66920452       0.00044099      -0.00044099       0.00044099
Si       3.91043444      -0.66920452       0.66920452      -0.00044099       0.00044099      -0.00044099
Si       0.66920452       0.66920452       0.66920452      -0.00044099      -0.00044099      -0.00044099
Si       0.66920452      -0.66920452       2.57202541      -0.00044099       0.00044099       0.00044099
Si      -0.66920452       2.57202541       0.66920452       0.00044099       0.00044099      -0.00044099
Si       0.66920452       3.91043444      -0.66920452      -0.00044099      -0.00044099       0.00044099
Si      -0.66920452       0.66920452       3.91043444       0.00044099      -0.00044099      -0.00044099
Si       2.57202541       2.57202541       2.57202541       0.00044099       0.00044099       0.00044099
