8
Lattice="-3.4597663450560767 3.459766345056076 3.4597663450560763 3.459766345056076 -3.4597663450560767 3.4597663450560763 3.4597663450560767 3.4597663450560767 -3.459766345056076" Properties=species:S:1:pos:R:3:forces:R:3 cutoff=-1.0 nneightol=1.2 n_minim_iter=1 energy=-1303.6057855798294 stress="0.053113870436223606 1.7674270845661693e-16 -9.929988006971693e-17 1.7674270845661693e-16 0.053113870436223364 1.0779906474717935e-16 -9.929988006971693e-17 1.0779906474717935e-16 0.05311387043622345" free_energy=-1303.6057855798294 pbc="T T T"
Si       2.77599106       0.68377528      -0.68377528       0.05773799      -0.05773799       0.05773799
Si       4.14354163      -0.68377529       0.68377529      -0.05773799       0.05773799      -0.05773799
Si       0.68377528       0.68377528       0.68377529      -0.05773799      -0.05773799      -0.05773799
Si       0.68377528      -0.68377529       2.77599106      -0.05773799       0.05773799       0.05773799
Si      -0.68377529       2.77599106       0.68377529       0.05773799       0.05773799      -0.05773799
Si       0.68377528       4.14354163      -0.68377528      -0.05773799      -0.05773799       0.05773799
Si      -0.68377529       0.68377528       4.14354163       0.05773799      -0.05773799      -0.05773799
Si       2.77599106       2.77599106       2.77599106       0.05773799       0.05773799       0.05773799
8
Lattice="-3.459766345056077 3.4597663450560763 3.4597663450560767 3.4597663450560763 -3.459766345056077 3.4597663450560767 3.459766345056077 3.459766345056077 -3.4597663450560763" Properties=species:S:1:pos:R:3:forces:R:3 cutoff=-1.0 nneightol=1.2 n_minim_iter=2 energy=-1303.6086760168196 stress="0.051803064481390756 -3.8281358461719454e-16 -1.3134406557579403e-16 -3.8281358461719454e-16 0.05180306448139098 -2.830683109495154e-16 -1.3134406557579403e-16 -2.830683109495154e-16 0.051803064481390826" free_energy=-1303.6086760168196 pbc="T T T"
Si       2.77986312       0.67990322      -0.67990322       0.00362757      -0.00362757       0.00362757
Si       4.13966957      -0.67990322       0.67990322      -0.00362757       0.00362757      -0.00362757
Si       0.67990322       0.67990322       0.67990322      -0.00362757      -0.00362757      -0.00362757
Si       0.67990322      -0.67990322       2.77986312      -0.00362757       0.00362757       0.00362757
Si      -0.67990322       2.77986312       0.67990322       0.00362757       0.00362757      -0.00362757
Si       0.67990322       4.13966957      -0.67990322      -0.00362757      -0.00362757       0.00362757
Si      -0.67990322       0.67990322       4.13966957       0.00362757      -0.00362757      -0.00362757
Si       2.77986312       2.77986312       2.77986312       0.00362757       0.00362757       0.00362757
