8
Lattice="-3.055599965406384 3.055599965406385 3.0555999654063846 3.055599965406384 -3.0555999654063855 3.055599965406385 3.0555999654063855 3.0555999654063846 -3.055599965406385" Properties=species:S:1:pos:R:3:forces:R:3 cutoff=-1.0 nneightol=1.2 n_minim_iter=1 energy=-1301.522459640317 stress="-0.19012445620449364 -6.410701307374941e-17 -1.3823862792562375e-15 -6.410701307374941e-17 -0.19012445620449353 8.749046772416557e-18 -1.3823862792562375e-15 8.749046772416557e-18 -0.1901244562044933" free_energy=-1301.522459640317 pbc="T T T"
Si       2.40731208       0.64828788      -0.64828788      -0.04436051       0.04436051      -0.04436051
Si       3.70388785      -0.64828788       0.64828788       0.04436051      -0.04436051       0.04436051
Si       0.64828788       0.64828788       0.64828788       0.04436051       0.04436051       0.04436051
Si       0.64828788      -0.64828788       2.40731208       0.04436051      -0.04436051      -0.04436051
Si      -0.64828788       2.40731208       0.64828788      -0.04436051      -0.04436051       0.04436051
Si       0.64828788       3.70388785      -0.64828788       0.04436051       0.04436051      -0.04436051
Si      -0.64828788       0.64828788       3.70388785      -0.04436051       0.04436051       0.04436051
Si       2.40731208       2.40731208       2.40731208      -0.04436051      -0.04436051      -0.04436051
8
Lattice="-3.0555999654063846 3.0555999654063855 3.055599965406385 3.0555999654063846 -3.055599965406386 3.0555999654063855 3.055599965406386 3.055599965406385 -3.0555999654063855" Properties=species:S:1:pos:R:3:forces:R:3 cutoff=-1.0 nneightol=1.2 n_minim_iter=2 energy=-1301.5241066597664 stress="-0.18920980714468166 2.7621992656481714e-15 -3.1792823508911564e-16 2.7621992656481714e-15 -0.18920980714468263 4.617992721423696e-18 -3.1792823508911564e-16 4.617992721423696e-18 -0.1892098071446826" free_energy=-1301.5241066597664 pbc="T T T"
Si       2.40419581       0.65140415      -0.65140415      -0.00014587       0.00014587      -0.00014587
Si       3.70700412      -0.65140415       0.65140415       0.00014587      -0.00014587       0.00014587
Si       0.65140415       0.65140415       0.65140415       0.00014587       0.00014587       0.00014587
Si       0.65140415      -0.65140415       2.40419581       0.00014587      -0.00014587      -0.00014587
Si      -0.65140415       2.40419581       0.65140415      -0.00014587      -0.00014587       0.00014587
Si       0.65140415       3.70700412      -0.65140415       0.00014587       0.00014587      -0.00014587
Si      -0.65140415       0.65140415       3.70700412      -0.00014587       0.00014587       0.00014587
Si       2.40419581       2.40419581       2.40419581      -0.00014587      -0.00014587      -0.00014587
