8
Lattice="-3.48520671711378 3.4852067171137793 3.4852067171137797 3.4852067171137793 -3.48520671711378 3.4852067171137797 3.48520671711378 3.48520671711378 -3.4852067171137784" Properties=species:S:1:pos:R:3:forces:R:3 cutoff=-1.0 nneightol=1.2 n_minim_iter=1 energy=-1303.4008304892607 stress="0.060981697765254105 2.2359965297596114e-16 -1.4720733653811682e-16 2.2359965297596114e-16 0.06098169776525403 -6.395146318785261e-17 -1.4720733653811682e-16 -6.395146318785261e-17 0.06098169776525405" free_energy=-1303.4008304892607 pbc="T T T"
Si       2.80030403       0.68490269      -0.68490269       0.05336162      -0.05336162       0.05336162
Si       4.17010941      -0.68490269       0.68490269      -0.05336162       0.05336162      -0.05336162
Si       0.68490269       0.68490269       0.68490269      -0.05336162      -0.05336162      -0.05336162
Si       0.68490269      -0.68490269       2.80030403      -0.05336162       0.05336162       0.05336162
Si      -0.68490269       2.80030403       0.68490269       0.05336162       0.05336162      -0.05336162
Si       0.68490269       4.17010941      -0.68490269      -0.05336162      -0.05336162       0.05336162
Si      -0.68490269       0.68490269       4.17010941       0.05336162      -0.05336162      -0.05336162
Si       2.80030403       2.80030403       2.80030403       0.05336162       0.05336162       0.05336162
8
Lattice="-3.4852067171137797 3.485206717113779 3.4852067171137793 3.485206717113779 -3.4852067171137797 3.4852067171137793 3.4852067171137797 3.4852067171137797 -3.485206717113778" Properties=species:S:1:pos:R:3:forces:R:3 cutoff=-1.0 nneightol=1.2 n_minim_iter=2 energy=-1303.4033085491656 stress="0.05985964639192538 -1.002126232717776e-17 3.250694980121137e-17 -1.002126232717776e-17 0.05985964639192511 8.237501479992222e-17 3.250694980121137e-17 8.237501479992222e-17 0.05985964639192512" free_energy=-1303.4033085491656 pbc="T T T"
Si       2.80389517       0.68131154      -0.68131154       0.00343305      -0.00343305       0.00343305
Si       4.16651826      -0.68131155       0.68131155      -0.00343305       0.00343305      -0.00343305
Si       0.68131154       0.68131154       0.68131155      -0.00343305      -0.00343305      -0.00343305
Si       0.68131154      -0.68131155       2.80389517      -0.00343305       0.00343305       0.00343305
Si      -0.68131155       2.80389517       0.68131155       0.00343305       0.00343305      -0.00343305
Si       0.68131154       4.16651826      -0.68131154      -0.00343305      -0.00343305       0.00343305
Si      -0.68131155       0.68131154       4.16651826       0.00343305      -0.00343305      -0.00343305
Si       2.80389517       2.80389517       2.80389517       0.00343305       0.00343305       0.00343305
