8
Lattice="-3.1199472054792285 3.1199472054792308 3.1199472054792285 3.1199472054792285 -3.119947205479229 3.1199472054792294 3.1199472054792294 3.119947205479228 -3.1199472054792294" Properties=species:S:1:pos:R:3:forces:R:3 cutoff=-1.0 nneightol=1.2 n_minim_iter=2 energy=-1303.0379489509273 stress="-0.10149824666766182 1.4046705242882208e-15 7.559335384162036e-16 1.4046705242882208e-15 -0.10149824666766182 -1.7202576289256934e-16 7.559335384162036e-16 -1.7202576289256934e-16 -0.10149824666766175" free_energy=-1303.0379489509273 pbc="T T T"
Si       2.46486587       0.65508133      -0.65508133       0.00037046      -0.00037046       0.00037046
Si       3.77502854      -0.65508133       0.65508133      -0.00037046       0.00037046      -0.00037046
Si       0.65508133       0.65508133       0.65508133      -0.00037046      -0.00037046      -0.00037046
Si       0.65508133      -0.65508133       2.46486587      -0.00037046       0.00037046       0.00037046
Si      -0.65508133       2.46486587       0.65508133       0.00037046       0.00037046      -0.00037046
Si       0.65508133       3.77502854      -0.65508133      -0.00037046      -0.00037046       0.00037046
Si      -0.65508133       0.65508133       3.77502854       0.00037046      -0.00037046      -0.00037046
Si       2.46486587       2.46486587       2.46486587       0.00037046       0.00037046       0.00037046
