8
Lattice="-3.211762566824314 3.2117625668243157 3.211762566824314 3.2117625668243144 -3.2117625668243144 3.211762566824315 3.2117625668243153 3.211762566824313 -3.211762566824315" Properties=species:S:1:pos:R:3:forces:R:3 cutoff=-1.0 nneightol=1.2 n_minim_iter=2 energy=-1303.6585580167623 stress="-0.0668190700657893 1.4899564953741986e-17 9.540030539738047e-17 1.4899564953741986e-17 -0.06681907006578944 -4.663865838939529e-16 9.540030539738047e-17 -4.663865838939529e-16 -0.06681907006578926" free_energy=-1303.6585580167623 pbc="T T T"
Si       2.54494026       0.66682231      -0.66682231       0.00037589      -0.00037589       0.00037589
Si       3.87858487      -0.66682231       0.66682231      -0.00037589       0.00037589      -0.00037589
Si       0.66682231       0.66682231       0.66682231      -0.00037589      -0.00037589      -0.00037589
Si       0.66682231      -0.66682231       2.54494026      -0.00037589       0.00037589       0.00037589
Si      -0.66682231       2.54494026       0.66682231       0.00037589       0.00037589      -0.00037589
Si       0.66682231       3.87858487      -0.66682231      -0.00037589      -0.00037589       0.00037589
Si      -0.66682231       0.66682231       3.87858487       0.00037589      -0.00037589      -0.00037589
Si       2.54494026       2.54494026       2.54494026       0.00037589       0.00037589       0.00037589
