8
Lattice="-3.2986087057203832 3.2986087057203837 3.298608705720383 3.2986087057203837 -3.2986087057203837 3.2986087057203837 3.2986087057203832 3.298608705720383 -3.2986087057203837" Properties=species:S:1:pos:R:3:forces:R:3 cutoff=-1.0 nneightol=1.2 n_minim_iter=1 energy=-1304.0978972634084 stress="-0.016345083785804657 -9.57672066700888e-16 -4.574905664848234e-16 -9.57672066700888e-16 -0.01634508378580522 -5.926285553645012e-16 -4.574905664848234e-16 -5.926285553645012e-16 -0.016345083785804723" free_energy=-1304.0978972634084 pbc="T T T"
Si       2.62978817       0.66882054      -0.66882054      -0.06408833       0.06408833      -0.06408833
Si       3.96742924      -0.66882054       0.66882054       0.06408833      -0.06408833       0.06408833
Si       0.66882054       0.66882054       0.66882054       0.06408833       0.06408833       0.06408833
Si       0.66882054      -0.66882054       2.62978817       0.06408833      -0.06408833      -0.06408833
Si      -0.66882054       2.62978817       0.66882054      -0.06408833      -0.06408833       0.06408833
Si       0.66882054       3.96742924      -0.66882054       0.06408833       0.06408833      -0.06408833
Si      -0.66882054       0.66882054       3.96742924      -0.06408833       0.06408833       0.06408833
Si       2.62978817       2.62978817       2.62978817      -0.06408833      -0.06408833      -0.06408833
8
Lattice="-3.2986087057203832 3.2986087057203837 3.298608705720383 3.2986087057203837 -3.2986087057203837 3.2986087057203837 3.2986087057203832 3.298608705720383 -3.2986087057203837" Properties=species:S:1:pos:R:3:forces:R:3 cutoff=-1.0 nneightol=1.2 n_minim_iter=2 energy=-1304.1009876508276 stress="-0.014571380879651633 -4.771705593768393e-16 7.011198480782014e-17 -4.771705593768393e-16 -0.014571380879652516 -1.1990942290639976e-16 7.011198480782014e-17 -1.1990942290639976e-16 -0.01457138087965212" free_energy=-1304.1009876508276 pbc="T T T"
Si       2.62566989       0.67293881      -0.67293881       0.00046308      -0.00046308       0.00046308
Si       3.97154752      -0.67293881       0.67293881      -0.00046308       0.00046308      -0.00046308
Si       0.67293881       0.67293881       0.67293881      -0.00046308      -0.00046308      -0.00046308
Si       0.67293881      -0.67293881       2.62566989      -0.00046308       0.00046308       0.00046308
Si      -0.67293881       2.62566989       0.67293881       0.00046308       0.00046308      -0.00046308
Si       0.67293881       3.97154752      -0.67293881      -0.00046308      -0.00046308       0.00046308
Si      -0.67293881       0.67293881       3.97154752       0.00046308      -0.00046308      -0.00046308
Si       2.62566989       2.62566989       2.62566989       0.00046308       0.00046308       0.00046308
