8
Lattice="-3.1511487474075968 3.151148747407598 3.1511487474075963 3.151148747407597 -3.151148747407597 3.151148747407597 3.1511487474075977 3.1511487474075963 -3.151148747407597" Properties=species:S:1:pos:R:3:forces:R:3 cutoff=-1.0 nneightol=1.2 n_minim_iter=2 energy=-1303.3798693823921 stress="-0.08435446083553498 9.856623181617227e-16 -1.4408022914159326e-16 9.856623181617227e-16 -0.08435446083553447 9.177270000305521e-17 -1.4408022914159326e-16 9.177270000305521e-17 -0.08435446083553494" free_energy=-1303.3798693823921 pbc="T T T"
Si       2.49325001       0.65789874      -0.65789874       0.00041326      -0.00041326       0.00041326
Si       3.80904748      -0.65789874       0.65789874      -0.00041326       0.00041326      -0.00041326
Si       0.65789874       0.65789874       0.65789874      -0.00041326      -0.00041326      -0.00041326
Si       0.65789874      -0.65789874       2.49325001      -0.00041326       0.00041326       0.00041326
Si      -0.65789874       2.49325001       0.65789874       0.00041326       0.00041326      -0.00041326
Si       0.65789874       3.80904748      -0.65789874      -0.00041326      -0.00041326       0.00041326
Si      -0.65789874       0.65789874       3.80904749       0.00041326      -0.00041326      -0.00041326
Si       2.49325001       2.49325001       2.49325001       0.00041326       0.00041326       0.00041326
