8
Lattice="-3.433946230961503 3.433946230961502 3.4339462309615025 3.433946230961502 -3.433946230961503 3.4339462309615025 3.433946230961503 3.433946230961503 -3.433946230961502" Properties=species:S:1:pos:R:3:forces:R:3 cutoff=-1.0 nneightol=1.2 n_minim_iter=2 energy=-1303.7836214709496 stress="0.04333443982860079 -4.914102758452951e-16 -2.7915925893511594e-16 -4.914102758452951e-16 0.04333443982860093 -3.6321949330488943e-16 -2.7915925893511594e-16 -3.6321949330488943e-16 0.04333443982860115" free_energy=-1303.7836214709496 pbc="T T T"
Si       2.75527394       0.67867229      -0.67867229       0.00385685      -0.00385685       0.00385685
Si       4.11261852      -0.67867229       0.67867229      -0.00385685       0.00385685      -0.00385685
Si       0.67867229       0.67867229       0.67867229      -0.00385685      -0.00385685      -0.00385685
Si       0.67867229      -0.67867229       2.75527394      -0.00385685       0.00385685       0.00385685
Si      -0.67867230       2.75527394       0.67867229       0.00385685       0.00385685      -0.00385685
Si       0.67867229       4.11261852      -0.67867229      -0.00385685      -0.00385685       0.00385685
Si      -0.67867230       0.67867229       4.11261853       0.00385685      -0.00385685      -0.00385685
Si       2.75527394       2.75527394       2.75527394       0.00385685       0.00385685       0.00385685
