8
Lattice="-3.433946230961503 3.433946230961502 3.4339462309615025 3.433946230961502 -3.433946230961503 3.4339462309615025 3.433946230961503 3.433946230961503 -3.433946230961502" Properties=species:S:1:pos:R:3:forces:R:3 cutoff=-1.0 nneightol=1.2 n_minim_iter=2 energy=-1303.9261799543467 stress="0.03420507428973129 5.934830645416338e-16 -7.224648937055694e-17 5.934830645416338e-16 0.03420507428973159 4.142102941783927e-16 -7.224648937055694e-17 4.142102941783927e-16 0.03420507428973126" free_energy=-1303.9261799543467 pbc="T T T"
Si       2.75112356       0.68282267      -0.68282267       0.00396497      -0.00396497       0.00396497
Si       4.11676890      -0.68282267       0.68282267      -0.00396497       0.00396497      -0.00396497
Si       0.68282267       0.68282267       0.68282267      -0.00396497      -0.00396497      -0.00396497
Si       0.68282267      -0.68282267       2.75112356      -0.00396497       0.00396497       0.00396497
Si      -0.68282267       2.75112356       0.68282267       0.00396497       0.00396497      -0.00396497
Si       0.68282267       4.11676890      -0.68282267      -0.00396497      -0.00396497       0.00396497
Si      -0.68282267       0.68282267       4.11676890       0.00396497      -0.00396497      -0.00396497
Si       2.75112356       2.75112356       2.75112356       0.00396497       0.00396497       0.00396497
