8
Lattice="-3.2701710086906437 3.270171008690644 3.2701710086906433 3.270171008690644 -3.270171008690644 3.270171008690644 3.2701710086906437 3.2701710086906433 -3.270171008690644" Properties=species:S:1:pos:R:3:forces:R:3 cutoff=-1.0 nneightol=1.2 n_minim_iter=2 energy=-1304.1009876508276 stress="-0.014571380879651633 -4.771705593768393e-16 7.011198480782014e-17 -4.771705593768393e-16 -0.014571380879652516 -1.1990942290639976e-16 7.011198480782014e-17 -1.1990942290639976e-16 -0.01457138087965212" free_energy=-1304.1009876508276 pbc="T T T"
Si       2.60303368       0.66713733      -0.66713733       0.00046308      -0.00046308       0.00046308
Si       3.93730833      -0.66713733       0.66713733      -0.00046308       0.00046308      -0.00046308
Si       0.66713733       0.66713733       0.66713733      -0.00046308      -0.00046308      -0.00046308
Si       0.66713733      -0.66713733       2.60303368      -0.00046308       0.00046308       0.00046308
Si      -0.66713733       2.60303368       0.66713733       0.00046308       0.00046308      -0.00046308
Si       0.66713733       3.93730833      -0.66713733      -0.00046308      -0.00046308       0.00046308
Si      -0.66713733       0.66713733       3.93730834       0.00046308      -0.00046308      -0.00046308
Si       2.60303368       2.60303368       2.60303368       0.00046308       0.00046308       0.00046308
