8
Lattice="-3.583432816787805 3.5834328167878042 3.5834328167878042 3.5834328167878033 -3.583432816787806 3.5834328167878042 3.583432816787805 3.583432816787806 -3.5834328167878025" Properties=species:S:1:pos:R:3:forces:R:3 cutoff=-1.0 nneightol=1.2 n_minim_iter=2 energy=-1302.6257931197895 stress="0.07985867696610029 -1.1852743250693413e-16 1.1809019285567106e-16 -1.1852743250693413e-16 0.07985867696610044 -8.213975212830063e-17 1.1809019285567106e-16 -8.213975212830063e-17 0.07985867696610013" free_energy=-1302.6257931197895 pbc="T T T"
Si       2.89313158       0.69030124      -0.69030124       0.00289010      -0.00289010       0.00289010
Si       4.27373406      -0.69030124       0.69030124      -0.00289010       0.00289010      -0.00289010
Si       0.69030124       0.69030124       0.69030124      -0.00289010      -0.00289010      -0.00289010
Si       0.69030124      -0.69030124       2.89313158      -0.00289010       0.00289010       0.00289010
Si      -0.69030124       2.89313158       0.69030124       0.00289010       0.00289010      -0.00289010
Si       0.69030124       4.27373406      -0.69030124      -0.00289010      -0.00289010       0.00289010
Si      -0.69030124       0.69030124       4.27373406       0.00289010      -0.00289010      -0.00289010
Si       2.89313158       2.89313158       2.89313158       0.00289010       0.00289010       0.00289010
