8
Lattice="-3.2986087057203846 3.298608705720384 3.2986087057203832 3.2986087057203846 -3.298608705720384 3.298608705720384 3.2986087057203846 3.2986087057203837 -3.298608705720384" Properties=species:S:1:pos:R:3:forces:R:3 cutoff=-1.0 nneightol=1.2 n_minim_iter=1 energy=-1304.1270478026127 stress="0.00020867567165455702 -2.670857223502539e-16 1.8481812047254142e-16 -2.670857223502539e-16 0.0002086756716538049 -6.472198576761731e-16 1.8481812047254142e-16 -6.472198576761731e-16 0.00020867567165432953" free_energy=-1304.1270478026127 pbc="T T T"
Si       2.62978817       0.66882054      -0.66882054       0.00340337      -0.00340337       0.00340337
Si       3.96742924      -0.66882054       0.66882054      -0.00340337       0.00340337      -0.00340337
Si       0.66882054       0.66882054       0.66882054      -0.00340337      -0.00340337      -0.00340337
Si       0.66882054      -0.66882054       2.62978817      -0.00340337       0.00340337       0.00340337
Si      -0.66882054       2.62978817       0.66882054       0.00340337       0.00340337      -0.00340337
Si       0.66882054       3.96742924      -0.66882054      -0.00340337      -0.00340337       0.00340337
Si      -0.66882054       0.66882054       3.96742924       0.00340337      -0.00340337      -0.00340337
Si       2.62978817       2.62978817       2.62978817       0.00340337       0.00340337       0.00340337
