8
Lattice="-3.2701710086906437 3.270171008690646 3.270171008690643 3.270171008690644 -3.270171008690645 3.2701710086906437 3.2701710086906446 3.270171008690644 -3.2701710086906437" Properties=species:S:1:pos:R:3:forces:R:3 cutoff=-1.0 nneightol=1.2 n_minim_iter=2 energy=-1304.0175402575737 stress="-0.030999966435091668 -3.8449163676314777e-16 -4.0729291039354725e-16 -3.8449163676314777e-16 -0.030999966435091293 -3.2733951571835197e-16 -4.0729291039354725e-16 -3.2733951571835197e-16 -0.030999966435091536" free_energy=-1304.0175402575737 pbc="T T T"
Si       2.59891987       0.67125114      -0.67125114       0.00045480      -0.00045480       0.00045480
Si       3.94142214      -0.67125114       0.67125114      -0.00045480       0.00045480      -0.00045480
Si       0.67125114       0.67125114       0.67125114      -0.00045480      -0.00045480      -0.00045480
Si       0.67125114      -0.67125114       2.59891987      -0.00045480       0.00045480       0.00045480
Si      -0.67125114       2.59891987       0.67125114       0.00045480       0.00045480      -0.00045480
Si       0.67125114       3.94142214      -0.67125114      -0.00045480      -0.00045480       0.00045480
Si      -0.67125114       0.67125114       3.94142215       0.00045480      -0.00045480      -0.00045480
Si       2.59891987       2.59891987       2.59891987       0.00045480       0.00045480       0.00045480
