8
Lattice="-3.088108787954524 3.088108787954527 3.088108787954524 3.088108787954524 -3.0881087879545253 3.0881087879545253 3.088108787954525 3.0881087879545244 -3.0881087879545253" Properties=species:S:1:pos:R:3:forces:R:3 cutoff=-1.0 nneightol=1.2 n_minim_iter=2 energy=-1302.1384183505334 stress="-0.1477365771090497 6.734700365168198e-17 -6.965491523825404e-16 6.734700365168198e-17 -0.147736577109051 -1.3635335549716378e-16 -6.965491523825404e-16 -1.3635335549716378e-16 -0.1477365771090501" free_energy=-1302.1384183505334 pbc="T T T"
Si       2.43292371       0.65518508      -0.65518508       0.00003512      -0.00003512       0.00003512
Si       3.74329387      -0.65518508       0.65518508      -0.00003512       0.00003512      -0.00003512
Si       0.65518508       0.65518508       0.65518508      -0.00003512      -0.00003512      -0.00003512
Si       0.65518508      -0.65518508       2.43292371      -0.00003512       0.00003512       0.00003512
Si      -0.65518508       2.43292371       0.65518508       0.00003512       0.00003512      -0.00003512
Si       0.65518508       3.74329387      -0.65518508      -0.00003512      -0.00003512       0.00003512
Si      -0.65518508       0.65518508       3.74329387       0.00003512      -0.00003512      -0.00003512
Si       2.43292371       2.43292371       2.43292371       0.00003512       0.00003512       0.00003512
