8
Lattice="-3.2396118012774835 3.2396118012774835 3.2396118012774835 3.2396118012774835 -3.2396118012774835 3.2396118012774835 3.2396118012774835 3.2396118012774835 -3.2396118012774835" Properties=species:S:1:pos:R:3:forces:R:3 cutoff=-1.0 nneightol=1.2 n_minim_iter=1 energy=-1303.7713102829414 stress="-0.059078336121163574 3.4723991054839e-16 3.259360064087512e-16 3.4723991054839e-16 -0.05907833612116412 1.1454693418799642e-16 3.259360064087512e-16 1.1454693418799642e-16 -0.05907833612116431" free_energy=-1303.7713102829414 pbc="T T T"
Si       2.59104152       0.64857028      -0.64857028      -0.39672059       0.39672059      -0.39672059
Si       3.88818208      -0.64857028       0.64857028       0.39672059      -0.39672059       0.39672059
Si       0.64857028       0.64857028       0.64857028       0.39672059       0.39672059       0.39672059
Si       0.64857028      -0.64857028       2.59104152       0.39672059      -0.39672059      -0.39672059
Si      -0.64857028       2.59104152       0.64857028      -0.39672059      -0.39672059       0.39672059
Si       0.64857028       3.88818208      -0.64857028       0.39672059       0.39672059      -0.39672059
Si      -0.64857028       0.64857028       3.88818208      -0.39672059       0.39672059       0.39672059
Si       2.59104152       2.59104152       2.59104152      -0.39672059      -0.39672059      -0.39672059
8
Lattice="-3.3718228669704144 3.3718228669704144 3.371822866970414 3.3718228669704144 -3.3718228669704144 3.3718228669704144 3.3718228669704144 3.3718228669704144 -3.3718228669704144" Properties=species:S:1:pos:R:3:forces:R:3 cutoff=-1.0 nneightol=1.2 n_minim_iter=2 energy=-1304.061833416294 stress="0.020915478251900384 -1.3550679569724353e-16 -3.231592548871628e-17 -1.3550679569724353e-16 0.02091547825190042 -6.468137896591915e-17 -3.231592548871628e-17 -6.468137896591915e-17 0.02091547825190036" free_energy=-1304.061833416294 pbc="T T T"
Si       2.69472828       0.67709459      -0.67709459       0.01585445      -0.01585445       0.01585445
Si       4.04891745      -0.67709459       0.67709459      -0.01585445       0.01585445      -0.01585445
Si       0.67709459       0.67709459       0.67709459      -0.01585445      -0.01585445      -0.01585445
Si       0.67709459      -0.67709459       2.69472828      -0.01585445       0.01585445       0.01585445
Si      -0.67709459       2.69472828       0.67709459       0.01585445       0.01585445      -0.01585445
Si       0.67709459       4.04891745      -0.67709459      -0.01585445      -0.01585445       0.01585445
Si      -0.67709459       0.67709459       4.04891745       0.01585445      -0.01585445      -0.01585445
Si       2.69472828       2.69472828       2.69472828       0.01585445       0.01585445       0.01585445
8
Lattice="-3.3563183101518215 3.3563183101518215 3.356318310151821 3.3563183101518215 -3.3563183101518215 3.3563183101518215 3.3563183101518215 3.3563183101518215 -3.3563183101518215" Properties=species:S:1:pos:R:3:forces:R:3 cutoff=-1.0 nneightol=1.2 n_minim_iter=3 energy=-1304.0812600092593 stress="0.017897957813611656 -4.648812353583861e-16 -2.920777219686366e-16 -4.648812353583861e-16 0.017897957813611948 -5.98345069134933e-16 -2.920777219686366e-16 -5.98345069134933e-16 0.01789795781361153" free_energy=-1304.0812600092593 pbc="T T T"
Si       2.67064994       0.68566837      -0.68566837       0.13342242      -0.13342242       0.13342242
Si       4.04198668      -0.68566837       0.68566837      -0.13342242       0.13342242      -0.13342242
Si       0.68566837       0.68566837       0.68566837      -0.13342242      -0.13342242      -0.13342242
Si       0.68566837      -0.68566837       2.67064994      -0.13342242       0.13342242       0.13342242
Si      -0.68566837       2.67064994       0.68566837       0.13342242       0.13342242      -0.13342242
Si       0.68566837       4.04198668      -0.68566837      -0.13342242      -0.13342242       0.13342242
Si      -0.68566837       0.68566837       4.04198668       0.13342242      -0.13342242      -0.13342242
Si       2.67064994       2.67064994       2.67064994       0.13342242       0.13342242       0.13342242
8
Lattice="-3.3169558496508307 3.316955849650831 3.3169558496508302 3.3169558496508307 -3.316955849650831 3.316955849650831 3.3169558496508307 3.3169558496508307 -3.3169558496508307" Properties=species:S:1:pos:R:3:forces:R:3 cutoff=-1.0 nneightol=1.2 n_minim_iter=4 energy=-1304.123072841783 stress="-0.0058008847777316595 -1.634256061035471e-17 -2.2015444255365425e-16 -1.634256061035471e-17 -0.005800884777731279 -2.4882027176680745e-16 -2.2015444255365425e-16 -2.4882027176680745e-16 -0.005800884777731732" free_energy=-1304.123072841783 pbc="T T T"
Si       2.64553503       0.67142082      -0.67142082      -0.03683203       0.03683203      -0.03683203
Si       3.98837667      -0.67142082       0.67142082       0.03683203      -0.03683203       0.03683203
Si       0.67142082       0.67142082       0.67142082       0.03683203       0.03683203       0.03683203
Si       0.67142082      -0.67142082       2.64553503       0.03683203      -0.03683203      -0.03683203
Si      -0.67142082       2.64553503       0.67142082      -0.03683203      -0.03683203       0.03683203
Si       0.67142082       3.98837667      -0.67142082       0.03683203       0.03683203      -0.03683203
Si      -0.67142082       0.67142082       3.98837667      -0.03683203       0.03683203       0.03683203
Si       2.64553503       2.64553503       2.64553503      -0.03683203      -0.03683203      -0.03683203
8
Lattice="-3.3265643496807726 3.326564349680773 3.326564349680772 3.3265643496807726 -3.326564349680773 3.326564349680773 3.3265643496807726 3.3265643496807726 -3.3265643496807726" Properties=species:S:1:pos:R:3:forces:R:3 cutoff=-1.0 nneightol=1.2 n_minim_iter=5 energy=-1304.1270478026122 stress="0.00020867567164828152 -2.567780470845402e-17 7.118633522398667e-17 -2.567780470845402e-17 0.00020867567164823994 -6.980021286679854e-16 7.118633522398667e-17 -6.980021286679854e-16 0.00020867567164790072" free_energy=-1304.1270478026122 pbc="T T T"
Si       2.65207557       0.67448878      -0.67448878       0.00340337      -0.00340337       0.00340337
Si       4.00105313      -0.67448878       0.67448878      -0.00340337       0.00340337      -0.00340337
Si       0.67448878       0.67448878       0.67448878      -0.00340337      -0.00340337      -0.00340337
Si       0.67448878      -0.67448878       2.65207557      -0.00340337       0.00340337       0.00340337
Si      -0.67448878       2.65207557       0.67448878       0.00340337       0.00340337      -0.00340337
Si       0.67448878       4.00105313      -0.67448878      -0.00340337      -0.00340337       0.00340337
Si      -0.67448878       0.67448878       4.00105313       0.00340337      -0.00340337      -0.00340337
Si       2.65207557       2.65207557       2.65207557       0.00340337       0.00340337       0.00340337
