8
Lattice="-3.5593822074525425 3.5593822074525403 3.5593822074525416 3.5593822074525403 -3.559382207452542 3.5593822074525416 3.5593822074525425 3.559382207452542 -3.55938220745254" Properties=species:S:1:pos:R:3:forces:R:3 cutoff=-1.0 nneightol=1.2 n_minim_iter=2 energy=-1302.9091080356452 stress="0.07403461969571797 -6.867216865764251e-16 -8.434294177512386e-17 -6.867216865764251e-16 0.07403461969571809 -2.5871488725147e-16 -8.434294177512386e-17 -2.5871488725147e-16 0.07403461969571823" free_energy=-1302.9091080356452 pbc="T T T"
Si       2.87034954       0.68903267      -0.68903267       0.00296716      -0.00296716       0.00296716
Si       4.24841487      -0.68903267       0.68903267      -0.00296716       0.00296716      -0.00296716
Si       0.68903267       0.68903267       0.68903267      -0.00296716      -0.00296716      -0.00296716
Si       0.68903267      -0.68903267       2.87034954      -0.00296716       0.00296716       0.00296716
Si      -0.68903267       2.87034954       0.68903267       0.00296716       0.00296716      -0.00296716
Si       0.68903267       4.24841487      -0.68903267      -0.00296716      -0.00296716       0.00296716
Si      -0.68903267       0.68903267       4.24841487       0.00296716      -0.00296716      -0.00296716
Si       2.87034954       2.87034954       2.87034954       0.00296716       0.00296716       0.00296716
