8
Lattice="-3.5102810088408103 3.5102810088408085 3.5102810088408094 3.5102810088408085 -3.510281008840811 3.5102810088408094 3.5102810088408103 3.510281008840811 -3.5102810088408076" Properties=species:S:1:pos:R:3:forces:R:3 cutoff=-1.0 nneightol=1.2 n_minim_iter=1 energy=-1303.1671238322315 stress="0.06832386959359155 -3.4695875522912356e-16 4.579764446862766e-17 -3.4695875522912356e-16 0.06832386959359155 4.159082467366828e-18 4.579764446862766e-17 4.159082467366828e-18 0.06832386959359146" free_energy=-1303.1671238322315 pbc="T T T"
Si       2.82406777       0.68621324      -0.68621324       0.04949180      -0.04949180       0.04949180
Si       4.19649424      -0.68621324       0.68621324      -0.04949180       0.04949180      -0.04949180
Si       0.68621323       0.68621324       0.68621324      -0.04949180      -0.04949180      -0.04949180
Si       0.68621323      -0.68621324       2.82406777      -0.04949180       0.04949180       0.04949180
Si      -0.68621324       2.82406777       0.68621324       0.04949180       0.04949180      -0.04949180
Si       0.68621323       4.19649424      -0.68621324      -0.04949180      -0.04949180       0.04949180
Si      -0.68621324       0.68621324       4.19649424       0.04949180      -0.04949180      -0.04949180
Si       2.82406777       2.82406777       2.82406777       0.04949180       0.04949180       0.04949180
8
Lattice="-3.51028100884081 3.510281008840808 3.510281008840809 3.510281008840808 -3.5102810088408107 3.510281008840809 3.51028100884081 3.5102810088408107 -3.510281008840807" Properties=species:S:1:pos:R:3:forces:R:3 cutoff=-1.0 nneightol=1.2 n_minim_iter=2 energy=-1303.1692725011203 stress="0.06731527330277393 -3.9036570872975936e-16 -2.5139559634616565e-16 -3.9036570872975936e-16 0.06731527330277413 7.54523451032196e-17 -2.5139559634616565e-16 7.54523451032196e-17 0.06731527330277415" free_energy=-1303.1692725011203 pbc="T T T"
Si       2.82743706       0.68284394      -0.68284394       0.00305184      -0.00305184       0.00305184
Si       4.19312495      -0.68284394       0.68284394      -0.00305184       0.00305184      -0.00305184
Si       0.68284394       0.68284394       0.68284394      -0.00305184      -0.00305184      -0.00305184
Si       0.68284394      -0.68284394       2.82743707      -0.00305184       0.00305184       0.00305184
Si      -0.68284394       2.82743707       0.68284394       0.00305184       0.00305184      -0.00305184
Si       0.68284394       4.19312495      -0.68284394      -0.00305184      -0.00305184       0.00305184
Si      -0.68284394       0.68284394       4.19312495       0.00305184      -0.00305184      -0.00305184
Si       2.82743706       2.82743707       2.82743707       0.00305184       0.00305184       0.00305184
