8
Lattice="-3.055599965406385 3.055599965406388 3.055599965406385 3.055599965406385 -3.0555999654063863 3.0555999654063863 3.055599965406386 3.0555999654063855 -3.0555999654063863" Properties=species:S:1:pos:R:3:forces:R:3 cutoff=-1.0 nneightol=1.2 n_minim_iter=2 energy=-1302.1384183505334 stress="-0.1477365771090497 6.734700365168198e-17 -6.965491523825404e-16 6.734700365168198e-17 -0.147736577109051 -1.3635335549716378e-16 -6.965491523825404e-16 -1.3635335549716378e-16 -0.1477365771090501" free_energy=-1302.1384183505334 pbc="T T T"
Si       2.40731208       0.64828788      -0.64828788       0.00003512      -0.00003512       0.00003512
Si       3.70388785      -0.64828788       0.64828788      -0.00003512       0.00003512      -0.00003512
Si       0.64828788       0.64828788       0.64828788      -0.00003512      -0.00003512      -0.00003512
Si       0.64828788      -0.64828788       2.40731208      -0.00003512       0.00003512       0.00003512
Si      -0.64828788       2.40731208       0.64828788       0.00003512       0.00003512      -0.00003512
Si       0.64828788       3.70388785      -0.64828788      -0.00003512      -0.00003512       0.00003512
Si      -0.64828788       0.64828788       3.70388785       0.00003512      -0.00003512      -0.00003512
Si       2.40731208       2.40731208       2.40731208       0.00003512       0.00003512       0.00003512
