8
Lattice="-3.0881087879545253 3.0881087879545275 3.0881087879545253 3.0881087879545253 -3.0881087879545257 3.0881087879545266 3.088108787954526 3.088108787954525 -3.0881087879545266" Properties=species:S:1:pos:R:3:forces:R:3 cutoff=-1.0 nneightol=1.2 n_minim_iter=1 energy=-1302.1366275583557 stress="-0.1486767296350427 -1.0077028639688275e-15 -3.027276650778079e-16 -1.0077028639688275e-15 -0.14867672963504247 5.007364455291872e-16 -3.027276650778079e-16 5.007364455291872e-16 -0.14867672963504303" free_energy=-1302.1366275583557 pbc="T T T"
Si       2.43617822       0.65193057      -0.65193057      -0.04652381       0.04652381      -0.04652381
Si       3.74003936      -0.65193057       0.65193057       0.04652381      -0.04652381       0.04652381
Si       0.65193057       0.65193057       0.65193057       0.04652381       0.04652381       0.04652381
Si       0.65193057      -0.65193057       2.43617822       0.04652381      -0.04652381      -0.04652381
Si      -0.65193057       2.43617822       0.65193057      -0.04652381      -0.04652381       0.04652381
Si       0.65193057       3.74003936      -0.65193057       0.04652381       0.04652381      -0.04652381
Si      -0.65193057       0.65193057       3.74003936      -0.04652381       0.04652381       0.04652381
Si       2.43617822       2.43617822       2.43617822      -0.04652381      -0.04652381      -0.04652381
8
Lattice="-3.088108787954524 3.088108787954527 3.088108787954524 3.088108787954524 -3.0881087879545253 3.0881087879545253 3.088108787954525 3.0881087879545244 -3.0881087879545253" Properties=species:S:1:pos:R:3:forces:R:3 cutoff=-1.0 nneightol=1.2 n_minim_iter=2 energy=-1302.1384183505334 stress="-0.1477365771090497 6.734700365168198e-17 -6.965491523825404e-16 6.734700365168198e-17 -0.147736577109051 -1.3635335549716378e-16 -6.965491523825404e-16 -1.3635335549716378e-16 -0.1477365771090501" free_energy=-1302.1384183505334 pbc="T T T"
Si       2.43292371       0.65518508      -0.65518508       0.00003512      -0.00003512       0.00003512
Si       3.74329387      -0.65518508       0.65518508      -0.00003512       0.00003512      -0.00003512
Si       0.65518508       0.65518508       0.65518508      -0.00003512      -0.00003512      -0.00003512
Si       0.65518508      -0.65518508       2.43292371      -0.00003512       0.00003512       0.00003512
Si      -0.65518508       2.43292371       0.65518508       0.00003512       0.00003512      -0.00003512
Si       0.65518508       3.74329387      -0.65518508      -0.00003512      -0.00003512       0.00003512
Si      -0.65518508       0.65518508       3.74329387       0.00003512      -0.00003512      -0.00003512
Si       2.43292371       2.43292371       2.43292371       0.00003512       0.00003512       0.00003512
