8
Lattice="-3.51028100884081 3.510281008840809 3.5102810088408094 3.510281008840809 -3.51028100884081 3.5102810088408094 3.51028100884081 3.51028100884081 -3.510281008840808" Properties=species:S:1:pos:R:3:forces:R:3 cutoff=-1.0 nneightol=1.2 n_minim_iter=2 energy=-1303.4033085491656 stress="0.05985964639192538 -1.002126232717776e-17 3.250694980121137e-17 -1.002126232717776e-17 0.05985964639192511 8.237501479992222e-17 3.250694980121137e-17 8.237501479992222e-17 0.05985964639192512" free_energy=-1303.4033085491656 pbc="T T T"
Si       2.82406777       0.68621324      -0.68621324       0.00343305      -0.00343305       0.00343305
Si       4.19649424      -0.68621324       0.68621324      -0.00343305       0.00343305      -0.00343305
Si       0.68621323       0.68621324       0.68621324      -0.00343305      -0.00343305      -0.00343305
Si       0.68621323      -0.68621324       2.82406777      -0.00343305       0.00343305       0.00343305
Si      -0.68621324       2.82406777       0.68621324       0.00343305       0.00343305      -0.00343305
Si       0.68621323       4.19649424      -0.68621324      -0.00343305      -0.00343305       0.00343305
Si      -0.68621324       0.68621324       4.19649424       0.00343305      -0.00343305      -0.00343305
Si       2.82406777       2.82406777       2.82406777       0.00343305       0.00343305       0.00343305
