8
Lattice="-3.119947205479228 3.1199472054792294 3.119947205479228 3.119947205479228 -3.119947205479229 3.1199472054792294 3.1199472054792294 3.119947205479228 -3.1199472054792294" Properties=species:S:1:pos:R:3:forces:R:3 cutoff=-1.0 nneightol=1.2 n_minim_iter=2 energy=-1302.6297697575717 stress="-0.1209749294276629 5.880322671288465e-16 -4.576519024720258e-16 5.880322671288465e-16 -0.12097492942766326 -3.281296131495092e-17 -4.576519024720258e-16 -3.281296131495092e-17 -0.12097492942766401" free_energy=-1302.6297697575717 pbc="T T T"
Si       2.46129523       0.65865198      -0.65865198       0.00026911      -0.00026911       0.00026911
Si       3.77859918      -0.65865198       0.65865198      -0.00026911       0.00026911      -0.00026911
Si       0.65865198       0.65865198       0.65865198      -0.00026911      -0.00026911      -0.00026911
Si       0.65865198      -0.65865198       2.46129523      -0.00026911       0.00026911       0.00026911
Si      -0.65865198       2.46129523       0.65865198       0.00026911       0.00026911      -0.00026911
Si       0.65865198       3.77859918      -0.65865198      -0.00026911      -0.00026911       0.00026911
Si      -0.65865198       0.65865198       3.77859918       0.00026911      -0.00026911      -0.00026911
Si       2.46129523       2.46129523       2.46129523       0.00026911       0.00026911       0.00026911
