8
Lattice="-3.0881087879545253 3.0881087879545266 3.0881087879545253 3.0881087879545253 -3.088108787954526 3.0881087879545266 3.0881087879545266 3.0881087879545253 -3.0881087879545266" Properties=species:S:1:pos:R:3:forces:R:3 cutoff=-1.0 nneightol=1.2 n_minim_iter=2 energy=-1302.6297697575717 stress="-0.1209749294276629 5.880322671288465e-16 -4.576519024720258e-16 5.880322671288465e-16 -0.12097492942766326 -3.281296131495092e-17 -4.576519024720258e-16 -3.281296131495092e-17 -0.12097492942766401" free_energy=-1302.6297697575717 pbc="T T T"
Si       2.43617822       0.65193057      -0.65193057       0.00026911      -0.00026911       0.00026911
Si       3.74003936      -0.65193057       0.65193057      -0.00026911       0.00026911      -0.00026911
Si       0.65193057       0.65193057       0.65193057      -0.00026911      -0.00026911      -0.00026911
Si       0.65193057      -0.65193057       2.43617822      -0.00026911       0.00026911       0.00026911
Si      -0.65193057       2.43617822       0.65193057       0.00026911       0.00026911      -0.00026911
Si       0.65193057       3.74003936      -0.65193057      -0.00026911      -0.00026911       0.00026911
Si      -0.65193057       0.65193057       3.74003936       0.00026911      -0.00026911      -0.00026911
Si       2.43617822       2.43617822       2.43617822       0.00026911       0.00026911       0.00026911
