8
Lattice="-3.5350021121256536 3.535002112125652 3.5350021121256527 3.535002112125652 -3.5350021121256545 3.5350021121256527 3.5350021121256536 3.5350021121256545 -3.535002112125651" Properties=species:S:1:pos:R:3:forces:R:3 cutoff=-1.0 nneightol=1.2 n_minim_iter=2 energy=-1303.1692725011203 stress="0.06731527330277393 -3.9036570872975936e-16 -2.5139559634616565e-16 -3.9036570872975936e-16 0.06731527330277413 7.54523451032196e-17 -2.5139559634616565e-16 7.54523451032196e-17 0.06731527330277415" free_energy=-1303.1692725011203 pbc="T T T"
Si       2.84734925       0.68765286      -0.68765286       0.00305184      -0.00305184       0.00305184
Si       4.22265497      -0.68765286       0.68765286      -0.00305184       0.00305184      -0.00305184
Si       0.68765286       0.68765286       0.68765286      -0.00305184      -0.00305184      -0.00305184
Si       0.68765286      -0.68765286       2.84734925      -0.00305184       0.00305184       0.00305184
Si      -0.68765286       2.84734925       0.68765286       0.00305184       0.00305184      -0.00305184
Si       0.68765286       4.22265497      -0.68765286      -0.00305184      -0.00305184       0.00305184
Si      -0.68765286       0.68765286       4.22265497       0.00305184      -0.00305184      -0.00305184
Si       2.84734925       2.84734925       2.84734925       0.00305184       0.00305184       0.00305184
