8
Lattice="-3.022384291593092 3.022384291593093 3.0223842915930925 3.022384291593092 -3.0223842915930934 3.022384291593093 3.0223842915930934 3.0223842915930925 -3.022384291593093" Properties=species:S:1:pos:R:3:forces:R:3 cutoff=-1.0 nneightol=1.2 n_minim_iter=2 energy=-1301.5241066597664 stress="-0.18920980714468166 2.7621992656481714e-15 -3.1792823508911564e-16 2.7621992656481714e-15 -0.18920980714468263 4.617992721423696e-18 -3.1792823508911564e-16 4.617992721423696e-18 -0.1892098071446826" free_energy=-1301.5241066597664 pbc="T T T"
Si       2.37806118       0.64432311      -0.64432311      -0.00014587       0.00014587      -0.00014587
Si       3.66670740      -0.64432311       0.64432311       0.00014587      -0.00014587       0.00014587
Si       0.64432311       0.64432311       0.64432311       0.00014587       0.00014587       0.00014587
Si       0.64432311      -0.64432311       2.37806118       0.00014587      -0.00014587      -0.00014587
Si      -0.64432311       2.37806118       0.64432311      -0.00014587      -0.00014587       0.00014587
Si       0.64432311       3.66670740      -0.64432311       0.00014587       0.00014587      -0.00014587
Si      -0.64432311       0.64432311       3.66670740      -0.00014587       0.00014587       0.00014587
Si       2.37806118       2.37806118       2.37806118      -0.00014587      -0.00014587      -0.00014587
