8
Lattice="-3.2117625668243144 3.211762566824316 3.2117625668243144 3.211762566824315 -3.211762566824315 3.2117625668243153 3.2117625668243157 3.2117625668243135 -3.2117625668243153" Properties=species:S:1:pos:R:3:forces:R:3 cutoff=-1.0 nneightol=1.2 n_minim_iter=1 energy=-1303.6560745802321 stress="-0.06817011880986813 1.842755259673356e-17 7.113998457039241e-16 1.842755259673356e-17 -0.06817011880986944 3.003708141890602e-16 7.113998457039241e-16 3.003708141890602e-16 -0.0681701188098685" free_energy=-1303.6560745802321 pbc="T T T"
Si       2.54864206       0.66312050      -0.66312050      -0.05727582       0.05727582      -0.05727582
Si       3.87488307      -0.66312050       0.66312050       0.05727582      -0.05727582       0.05727582
Si       0.66312050       0.66312050       0.66312050       0.05727582       0.05727582       0.05727582
Si       0.66312050      -0.66312050       2.54864206       0.05727582      -0.05727582      -0.05727582
Si      -0.66312050       2.54864206       0.66312050      -0.05727582      -0.05727582       0.05727582
Si       0.66312050       3.87488307      -0.66312050       0.05727582       0.05727582      -0.05727582
Si      -0.66312050       0.66312050       3.87488307      -0.05727582       0.05727582       0.05727582
Si       2.54864206       2.54864206       2.54864206      -0.05727582      -0.05727582      -0.05727582
8
Lattice="-3.211762566824314 3.2117625668243157 3.211762566824314 3.2117625668243144 -3.2117625668243144 3.211762566824315 3.2117625668243153 3.211762566824313 -3.211762566824315" Properties=species:S:1:pos:R:3:forces:R:3 cutoff=-1.0 nneightol=1.2 n_minim_iter=2 energy=-1303.6585580167623 stress="-0.0668190700657893 1.4899564953741986e-17 9.540030539738047e-17 1.4899564953741986e-17 -0.06681907006578944 -4.663865838939529e-16 9.540030539738047e-17 -4.663865838939529e-16 -0.06681907006578926" free_energy=-1303.6585580167623 pbc="T T T"
Si       2.54494026       0.66682231      -0.66682231       0.00037589      -0.00037589       0.00037589
Si       3.87858487      -0.66682231       0.66682231      -0.00037589       0.00037589      -0.00037589
Si       0.66682231       0.66682231       0.66682231      -0.00037589      -0.00037589      -0.00037589
Si       0.66682231      -0.66682231       2.54494026      -0.00037589       0.00037589       0.00037589
Si      -0.66682231       2.54494026       0.66682231       0.00037589       0.00037589      -0.00037589
Si       0.66682231       3.87858487      -0.66682231      -0.00037589      -0.00037589       0.00037589
Si      -0.66682231       0.66682231       3.87858487       0.00037589      -0.00037589      -0.00037589
Si       2.54494026       2.54494026       2.54494026       0.00037589       0.00037589       0.00037589
