8
Lattice="-3.407731878648087 3.407731878648086 3.4077318786480864 3.407731878648086 -3.407731878648087 3.4077318786480864 3.407731878648087 3.407731878648087 -3.407731878648086" Properties=species:S:1:pos:R:3:forces:R:3 cutoff=-1.0 nneightol=1.2 n_minim_iter=2 energy=-1303.9261799543467 stress="0.03420507428973129 5.934830645416338e-16 -7.224648937055694e-17 5.934830645416338e-16 0.03420507428973159 4.142102941783927e-16 -7.224648937055694e-17 4.142102941783927e-16 0.03420507428973126" free_energy=-1303.9261799543467 pbc="T T T"
Si       2.73012180       0.67761008      -0.67761008       0.00396497      -0.00396497       0.00396497
Si       4.08534196      -0.67761008       0.67761008      -0.00396497       0.00396497      -0.00396497
Si       0.67761008       0.67761008       0.67761008      -0.00396497      -0.00396497      -0.00396497
Si       0.67761008      -0.67761008       2.73012180      -0.00396497       0.00396497       0.00396497
Si      -0.67761008       2.73012180       0.67761008       0.00396497       0.00396497      -0.00396497
Si       0.67761008       4.08534196      -0.67761008      -0.00396497      -0.00396497       0.00396497
Si      -0.67761008       0.67761008       4.08534196       0.00396497      -0.00396497      -0.00396497
Si       2.73012180       2.73012180       2.73012180       0.00396497       0.00396497       0.00396497
