8
Lattice="-3.3811078857257097 3.381107885725709 3.3811078857257097 3.381107885725709 -3.3811078857257097 3.3811078857257097 3.3811078857257097 3.3811078857257097 -3.3811078857257093" Properties=species:S:1:pos:R:3:forces:R:3 cutoff=-1.0 nneightol=1.2 n_minim_iter=2 energy=-1304.033677044368 stress="0.02427171952561434 3.4646601090490976e-16 -4.636296675705188e-16 3.4646601090490976e-16 0.02427171952561398 1.2502291260157664e-16 -4.636296675705188e-16 1.2502291260157664e-16 0.024271719525614313" free_energy=-1304.033677044368 pbc="T T T"
Si       2.70448484       0.67662305      -0.67662305       0.00410752      -0.00410752       0.00410752
Si       4.05773093      -0.67662305       0.67662305      -0.00410752       0.00410752      -0.00410752
Si       0.67662305       0.67662305       0.67662305      -0.00410752      -0.00410752      -0.00410752
Si       0.67662305      -0.67662305       2.70448484      -0.00410752       0.00410752       0.00410752
Si      -0.67662305       2.70448484       0.67662305       0.00410752       0.00410752      -0.00410752
Si       0.67662305       4.05773093      -0.67662305      -0.00410752      -0.00410752       0.00410752
Si      -0.67662305       0.67662305       4.05773093       0.00410752      -0.00410752      -0.00410752
Si       2.70448484       2.70448484       2.70448484       0.00410752       0.00410752       0.00410752
