8
Lattice="-3.4597663450560776 3.4597663450560767 3.459766345056077 3.4597663450560767 -3.4597663450560776 3.459766345056077 3.4597663450560776 3.4597663450560776 -3.4597663450560767" Properties=species:S:1:pos:R:3:forces:R:3 cutoff=-1.0 nneightol=1.2 n_minim_iter=2 energy=-1303.7836214709496 stress="0.04333443982860079 -4.914102758452951e-16 -2.7915925893511594e-16 -4.914102758452951e-16 0.04333443982860093 -3.6321949330488943e-16 -2.7915925893511594e-16 -3.6321949330488943e-16 0.04333443982860115" free_energy=-1303.7836214709496 pbc="T T T"
Si       2.77599106       0.68377528      -0.68377528       0.00385685      -0.00385685       0.00385685
Si       4.14354163      -0.68377529       0.68377529      -0.00385685       0.00385685      -0.00385685
Si       0.68377528       0.68377528       0.68377529      -0.00385685      -0.00385685      -0.00385685
Si       0.68377528      -0.68377529       2.77599106      -0.00385685       0.00385685       0.00385685
Si      -0.68377529       2.77599106       0.68377529       0.00385685       0.00385685      -0.00385685
Si       0.68377528       4.14354163      -0.68377528      -0.00385685      -0.00385685       0.00385685
Si      -0.68377529       0.68377528       4.14354163       0.00385685      -0.00385685      -0.00385685
Si       2.77599106       2.77599106       2.77599106       0.00385685       0.00385685       0.00385685
