8
Lattice="-3.1511487474075963 3.1511487474075985 3.1511487474075963 3.1511487474075963 -3.1511487474075968 3.151148747407597 3.151148747407597 3.151148747407596 -3.151148747407597" Properties=species:S:1:pos:R:3:forces:R:3 cutoff=-1.0 nneightol=1.2 n_minim_iter=2 energy=-1303.0379489509273 stress="-0.10149824666766182 1.4046705242882208e-15 7.559335384162036e-16 1.4046705242882208e-15 -0.10149824666766182 -1.7202576289256934e-16 7.559335384162036e-16 -1.7202576289256934e-16 -0.10149824666766175" free_energy=-1303.0379489509273 pbc="T T T"
Si       2.48951617       0.66163258      -0.66163258       0.00037046      -0.00037046       0.00037046
Si       3.81278133      -0.66163258       0.66163258      -0.00037046       0.00037046      -0.00037046
Si       0.66163258       0.66163258       0.66163258      -0.00037046      -0.00037046      -0.00037046
Si       0.66163258      -0.66163258       2.48951617      -0.00037046       0.00037046       0.00037046
Si      -0.66163258       2.48951617       0.66163258       0.00037046       0.00037046      -0.00037046
Si       0.66163258       3.81278133      -0.66163258      -0.00037046      -0.00037046       0.00037046
Si      -0.66163258       0.66163258       3.81278133       0.00037046      -0.00037046      -0.00037046
Si       2.48951617       2.48951617       2.48951617       0.00037046       0.00037046       0.00037046
