8
Lattice="-3.3540578638269465 3.3540578638269447 3.3540578638269465 3.3540578638269456 -3.354057863826945 3.3540578638269465 3.354057863826947 3.3540578638269456 -3.354057863826946" Properties=species:S:1:pos:R:3:forces:R:3 cutoff=-1.0 nneightol=1.2 n_minim_iter=2 energy=-1304.1024400131776 stress="0.013077273974755426 3.0996801275905783e-16 5.88160983091806e-17 3.0996801275905783e-16 0.013077273974755088 -3.363685689289109e-17 5.88160983091806e-17 -3.363685689289109e-17 0.013077273974755489" free_energy=-1304.1024400131776 pbc="T T T"
Si       2.67842016       0.67563770      -0.67563770       0.00410806      -0.00410806       0.00410806
Si       4.02969557      -0.67563770       0.67563770      -0.00410806       0.00410806      -0.00410806
Si       0.67563770       0.67563770       0.67563770      -0.00410806      -0.00410806      -0.00410806
Si       0.67563770      -0.67563770       2.67842016      -0.00410806       0.00410806       0.00410806
Si      -0.67563771       2.67842016       0.67563770       0.00410806       0.00410806      -0.00410806
Si       0.67563770       4.02969557      -0.67563770      -0.00410806      -0.00410806       0.00410806
Si      -0.67563771       0.67563770       4.02969557       0.00410806      -0.00410806      -0.00410806
Si       2.67842016       2.67842016       2.67842016       0.00410806       0.00410806       0.00410806
