8
Lattice="-3.3811078857257097 3.381107885725708 3.3811078857257097 3.381107885725709 -3.3811078857257084 3.3811078857257097 3.38110788572571 3.381107885725709 -3.3811078857257093" Properties=species:S:1:pos:R:3:forces:R:3 cutoff=-1.0 nneightol=1.2 n_minim_iter=2 energy=-1304.1024400131776 stress="0.013077273974755426 3.0996801275905783e-16 5.88160983091806e-17 3.0996801275905783e-16 0.013077273974755088 -3.363685689289109e-17 5.88160983091806e-17 -3.363685689289109e-17 0.013077273974755489" free_energy=-1304.1024400131776 pbc="T T T"
Si       2.70002125       0.68108663      -0.68108663       0.00410806      -0.00410806       0.00410806
Si       4.06219452      -0.68108663       0.68108663      -0.00410806       0.00410806      -0.00410806
Si       0.68108663       0.68108663       0.68108663      -0.00410806      -0.00410806      -0.00410806
Si       0.68108663      -0.68108663       2.70002126      -0.00410806       0.00410806       0.00410806
Si      -0.68108663       2.70002125       0.68108663       0.00410806       0.00410806      -0.00410806
Si       0.68108663       4.06219452      -0.68108663      -0.00410806      -0.00410806       0.00410806
Si      -0.68108663       0.68108663       4.06219452       0.00410806      -0.00410806      -0.00410806
Si       2.70002125       2.70002125       2.70002126       0.00410806       0.00410806       0.00410806
