8
Lattice="-3.583432816787806 3.583432816787802 3.583432816787804 3.5834328167878025 -3.583432816787805 3.583432816787804 3.583432816787806 3.583432816787805 -3.5834328167878016" Properties=species:S:1:pos:R:3:forces:R:3 cutoff=-1.0 nneightol=1.2 n_minim_iter=1 energy=-1302.3207004864703 stress="0.08573450267279988 2.7331481667613463e-17 2.7229297896875334e-17 2.7331481667613463e-17 0.0857345026727997 6.205114098045503e-17 2.7229297896875334e-17 6.205114098045503e-17 0.08573450267279945" free_energy=-1302.3207004864703 pbc="T T T"
Si       2.89313158       0.69030124      -0.69030124       0.04783671      -0.04783671       0.04783671
Si       4.27373406      -0.69030124       0.69030124      -0.04783671       0.04783671      -0.04783671
Si       0.69030124       0.69030124       0.69030124      -0.04783671      -0.04783671      -0.04783671
Si       0.69030124      -0.69030124       2.89313158      -0.04783671       0.04783671       0.04783671
Si      -0.69030124       2.89313158       0.69030124       0.04783671       0.04783671      -0.04783671
Si       0.69030124       4.27373406      -0.69030124      -0.04783671      -0.04783671       0.04783671
Si      -0.69030124       0.69030124       4.27373406       0.04783671      -0.04783671      -0.04783671
Si       2.89313158       2.89313158       2.89313158       0.04783671       0.04783671       0.04783671
8
Lattice="-3.5834328167878047 3.5834328167878007 3.5834328167878033 3.583432816787801 -3.583432816787804 3.5834328167878033 3.5834328167878047 3.583432816787804 -3.583432816787801" Properties=species:S:1:pos:R:3:forces:R:3 cutoff=-1.0 nneightol=1.2 n_minim_iter=2 energy=-1302.3228225097057 stress="0.08471171476472171 -2.0258804311363437e-16 -1.5554251661010862e-16 -2.0258804311363437e-16 0.08471171476472156 -2.847374559920317e-16 -1.5554251661010862e-16 -2.847374559920317e-16 0.08471171476472178" free_energy=-1302.3228225097057 pbc="T T T"
Si       2.89658156       0.68685126      -0.68685126       0.00285008      -0.00285008       0.00285008
Si       4.27028407      -0.68685126       0.68685126      -0.00285008       0.00285008      -0.00285008
Si       0.68685125       0.68685126       0.68685126      -0.00285008      -0.00285008      -0.00285008
Si       0.68685125      -0.68685126       2.89658156      -0.00285008       0.00285008       0.00285008
Si      -0.68685126       2.89658156       0.68685126       0.00285008       0.00285008      -0.00285008
Si       0.68685125       4.27028407      -0.68685126      -0.00285008      -0.00285008       0.00285008
Si      -0.68685126       0.68685126       4.27028407       0.00285008      -0.00285008      -0.00285008
Si       2.89658156       2.89658156       2.89658156       0.00285008       0.00285008       0.00285008
