8
Lattice="-3.181744338001651 3.1817443380016526 3.181744338001651 3.1817443380016512 -3.1817443380016512 3.1817443380016517 3.181744338001652 3.18174433800165 -3.1817443380016517" Properties=species:S:1:pos:R:3:forces:R:3 cutoff=-1.0 nneightol=1.2 n_minim_iter=2 energy=-1303.6585580167623 stress="-0.0668190700657893 1.4899564953741986e-17 9.540030539738047e-17 1.4899564953741986e-17 -0.06681907006578944 -4.663865838939529e-16 9.540030539738047e-17 -4.663865838939529e-16 -0.06681907006578926" free_energy=-1303.6585580167623 pbc="T T T"
Si       2.52115438       0.66058996      -0.66058996       0.00037589      -0.00037589       0.00037589
Si       3.84233430      -0.66058996       0.66058996      -0.00037589       0.00037589      -0.00037589
Si       0.66058996       0.66058996       0.66058996      -0.00037589      -0.00037589      -0.00037589
Si       0.66058996      -0.66058996       2.52115438      -0.00037589       0.00037589       0.00037589
Si      -0.66058996       2.52115438       0.66058996       0.00037589       0.00037589      -0.00037589
Si       0.66058996       3.84233430      -0.66058996      -0.00037589      -0.00037589       0.00037589
Si      -0.66058996       0.66058996       3.84233430       0.00037589      -0.00037589      -0.00037589
Si       2.52115438       2.52115438       2.52115438       0.00037589       0.00037589       0.00037589
