8
Lattice="-3.1817443380016504 3.1817443380016517 3.1817443380016504 3.181744338001651 -3.181744338001651 3.1817443380016512 3.1817443380016512 3.18174433800165 -3.1817443380016512" Properties=species:S:1:pos:R:3:forces:R:3 cutoff=-1.0 nneightol=1.2 n_minim_iter=1 energy=-1303.377453322168 stress="-0.08570771784437313 -5.147265322528855e-16 -1.9791259213350109e-16 -5.147265322528855e-16 -0.08570771784437282 -2.791071151219846e-16 -1.9791259213350109e-16 -2.791071151219846e-16 -0.0857077178443728" free_energy=-1303.377453322168 pbc="T T T"
Si       2.52115438       0.66058996      -0.66058996      -0.05589629       0.05589629      -0.05589629
Si       3.84233430      -0.66058996       0.66058996       0.05589629      -0.05589629       0.05589629
Si       0.66058996       0.66058996       0.66058996       0.05589629       0.05589629       0.05589629
Si       0.66058996      -0.66058996       2.52115438       0.05589629      -0.05589629      -0.05589629
Si      -0.66058996       2.52115438       0.66058996      -0.05589629      -0.05589629       0.05589629
Si       0.66058996       3.84233430      -0.66058996       0.05589629       0.05589629      -0.05589629
Si      -0.66058996       0.66058996       3.84233430      -0.05589629       0.05589629       0.05589629
Si       2.52115438       2.52115438       2.52115438      -0.05589629      -0.05589629      -0.05589629
8
Lattice="-3.1817443380016495 3.181744338001651 3.181744338001649 3.18174433800165 -3.18174433800165 3.18174433800165 3.1817443380016504 3.181744338001649 -3.18174433800165" Properties=species:S:1:pos:R:3:forces:R:3 cutoff=-1.0 nneightol=1.2 n_minim_iter=2 energy=-1303.3798693823921 stress="-0.08435446083553498 9.856623181617227e-16 -1.4408022914159326e-16 9.856623181617227e-16 -0.08435446083553447 9.177270000305521e-17 -1.4408022914159326e-16 9.177270000305521e-17 -0.08435446083553494" free_energy=-1303.3798693823921 pbc="T T T"
Si       2.51745783       0.66428650      -0.66428650       0.00041326      -0.00041326       0.00041326
Si       3.84603084      -0.66428650       0.66428650      -0.00041326       0.00041326      -0.00041326
Si       0.66428650       0.66428650       0.66428650      -0.00041326      -0.00041326      -0.00041326
Si       0.66428650      -0.66428650       2.51745784      -0.00041326       0.00041326       0.00041326
Si      -0.66428650       2.51745783       0.66428650       0.00041326       0.00041326      -0.00041326
Si       0.66428650       3.84603084      -0.66428650      -0.00041326      -0.00041326       0.00041326
Si      -0.66428650       0.66428650       3.84603084       0.00041326      -0.00041326      -0.00041326
Si       2.51745783       2.51745783       2.51745784       0.00041326       0.00041326       0.00041326
