16
Lattice="2.7180733233619225 -2.7180733233619225 0.0 2.7180733233619225 2.7180733233619225 0.0 0.0 0.0 31.35248097841861" Properties=species:S:1:pos:R:3:travel:I:3:map_shift:I:3:n_neighb:I:1:orig_index:I:1:forces:R:3 cutoff=2.0 nneightol=1.2 supercell_a1_in_bulk_lattice_coords="1 0 -1" bulk_struct_test=bulk_Si_diamond n_minim_iter=10 energy=-2606.889564058835 stress="0.003157814557154069 0.0033121991093830448 2.935473621870297e-15 0.0033121991093830448 0.003157814557154023 -4.289354711439122e-15 2.935473621870297e-15 -4.289354711439122e-15 1.07515771000824e-06" free_energy=-2606.889564058835 pbc="T T T"
Si       0.00000000      -0.00000000      -0.00541702        0        0        0        0        0        0       29        1      -0.00000000       0.00000000       0.00003021
Si       1.35903666       1.35903666       1.36445368        0        0        0       -1        0        0       29        2       0.00000000      -0.00000000      -0.00003021
Si       0.00000000       2.71807332       2.73418847        0        0        0       -1        0        0       29        3      -0.00000000       0.00000000      -0.00007400
Si      -1.35903666       1.35903666       4.10500894        1        0        0        0        0        0       29        4       0.00000000       0.00000000      -0.00000304
Si      -0.00000000      -0.00000000       5.47487195        1       -1        0        0        0        0       29        5       0.00000000       0.00000000       0.00004657
Si       1.35903666       1.35903666       6.85154640        1       -1        0        0        0        0       29        6       0.00000000      -0.00000000      -0.00005946
Si       0.00000000       2.71807332       8.22440902        1       -1        0        0        0        0       29        7      -0.00000000       0.00000000      -0.00001354
Si      -1.35903666       1.35903666       9.61093594        2       -1        0        0        0        0       29        8      -0.00000000       0.00000000       0.00003855
Si      -0.00000000       0.00000000      10.97611739        2       -2        0        0        0        0       29        9       0.00000000      -0.00000000      -0.00001596
Si       1.35903666       1.35903666      -9.61708072        2       -2        1        0        0        0       29       10       0.00000000      -0.00000000       0.00001596
Si       0.00000000       2.71807332      -8.25189927        2       -2        1        0        0        0       35       11      -0.00000000       0.00000000      -0.00003855
Si      -1.35903666       1.35903666      -6.86537235        3       -2        1        0        0        0       35       12      -0.00000000       0.00000000       0.00001354
Si       0.00000000       0.00000000      -5.49250974        3       -3        1        0        0        0       35       13      -0.00000000      -0.00000000       0.00005946
Si       1.35903666       1.35903666      -4.11583529        3       -3        1        0        0        0       35       14       0.00000000      -0.00000000      -0.00004657
Si       0.00000000       2.71807332      -2.74597228        3       -2        1        0        0        0       29       97      -0.00000000       0.00000000       0.00000304
Si      -1.35903666       1.35903666      -1.37515181        4       -2        1        0        0        0       29       98       0.00000000      -0.00000000       0.00007400
