16
Lattice="2.7180733233619225 -2.7180733233619225 0.0 2.7180733233619225 2.7180733233619225 0.0 0.0 0.0 31.35248097841861" Properties=species:S:1:pos:R:3:travel:I:3:map_shift:I:3:n_neighb:I:1:orig_index:I:1:forces:R:3 cutoff=2.0 nneightol=1.2 supercell_a1_in_bulk_lattice_coords="1 0 -1" bulk_struct_test=bulk_Si_diamond n_minim_iter=1 energy=-2606.874008794437 stress="0.0007683089756130859 0.002878196875606952 -8.952331406155995e-17 0.002878196875606952 0.0007683089756131267 1.1362920732439469e-16 -8.952331406155995e-17 1.1362920732439469e-16 -0.005824364315982489" free_energy=-2606.874008794437 pbc="T T T"
Si       0.00000000       0.00000000       0.00000000        0        0        0        0        0        0       29        1       0.00000000      -0.00000000       0.00092482
Si       1.35903666       1.35903666       1.35903666        0        0        0       -1        0        0       29        2      -0.00000000       0.00000000      -0.00092482
Si       0.00000000       2.71807332       2.71807332        0        0        0       -1        0        0       29        3       0.00000000      -0.00000000      -0.00949319
Si      -1.35903666       1.35903666       4.07710999        1        0        0        0        0        0       29        4       0.00000000      -0.00000000       0.00319193
Si       0.00000000       0.00000000       5.43614665        1       -1        0        0        0        0       29        5       0.00000000       0.00000000      -0.05499268
Si       1.35903666       1.35903666       6.79518331        1       -1        0        0        0        0       29        6      -0.00000000       0.00000000       0.01586810
Si       0.00000000       2.71807332       8.15421997        1       -1        0        0        0        0       29        7       0.00000000      -0.00000000      -0.03993040
Si      -1.35903666       1.35903666       9.51325663        2       -1        0        0        0        0       29        8      -0.00000000       0.00000000       0.15857350
Si       0.00000000       0.00000000      10.87229329        2       -2        0        0        0        0       29        9       0.00000000      -0.00000000       0.04124868
Si       1.35903666       1.35903666      -9.51325663        2       -2        1        0        0        0       29       10      -0.00000000       0.00000000      -0.04124868
Si       0.00000000       2.71807332      -8.15421997        2       -2        1        0        0        0       35       11       0.00000000      -0.00000000      -0.15857350
Si      -1.35903666       1.35903666      -6.79518331        3       -2        1        0        0        0       35       12      -0.00000000       0.00000000       0.03993040
Si       0.00000000       0.00000000      -5.43614665        3       -3        1        0        0        0       35       13       0.00000000      -0.00000000      -0.01586810
Si       1.35903666       1.35903666      -4.07710999        3       -3        1        0        0        0       35       14      -0.00000000       0.00000000       0.05499268
Si       0.00000000       2.71807332      -2.71807332        3       -2        1        0        0        0       29       97       0.00000000      -0.00000000      -0.00319193
Si      -1.35903666       1.35903666      -1.35903666        4       -2        1        0        0        0       29       98      -0.00000000       0.00000000       0.00949319
16
Lattice="2.7180733233619225 -2.7180733233619225 0.0 2.7180733233619225 2.7180733233619225 0.0 0.0 0.0 31.35248097841861" Properties=species:S:1:pos:R:3:travel:I:3:map_shift:I:3:n_neighb:I:1:orig_index:I:1:forces:R:3 cutoff=2.0 nneightol=1.2 supercell_a1_in_bulk_lattice_coords="1 0 -1" bulk_struct_test=bulk_Si_diamond n_minim_iter=2 energy=-2606.876581321 stress="0.0008191133803038979 0.003732794845210072 1.8907133285654397e-16 0.003732794845210072 0.0008191133803039378 -2.8691414566940296e-16 1.8907133285654397e-16 -2.8691414566940296e-16 -0.005586965212125701" free_energy=-2606.876581321 pbc="T T T"
Si       0.00000000      -0.00000000       0.00007490        0        0        0        0        0        0       29        1      -0.00000000       0.00000000       0.00275750
Si       1.35903666       1.35903666       1.35896176        0        0        0       -1        0        0       29        2       0.00000000      -0.00000000      -0.00275750
Si       0.00000000       2.71807332       2.71730449        0        0        0       -1        0        0       29        3      -0.00000000       0.00000000      -0.00105248
Si      -1.35903666       1.35903666       4.07736849        1        0        0        0        0        0       29        4      -0.00000000       0.00000000      -0.03392014
Si       0.00000000       0.00000000       5.43169290        1       -1        0        0        0        0       29        5       0.00000000      -0.00000000       0.01895385
Si       1.35903666       1.35903666       6.79646844        1       -1        0        0        0        0       29        6       0.00000000      -0.00000000      -0.03855344
Si       0.00000000       2.71807332       8.15098608        1       -1        0        0        0        0       29        7      -0.00000000       0.00000000       0.07672847
Si      -1.35903666       1.35903666       9.52609919        2       -1        0        0        0        0       29        8       0.00000000      -0.00000000       0.00677240
Si       0.00000000      -0.00000000      10.87563394        2       -2        0        0        0        0       29        9      -0.00000000       0.00000000       0.09081415
Si       1.35903666       1.35903666      -9.51659728        2       -2        1        0        0        0       29       10       0.00000000      -0.00000000      -0.09081415
Si       0.00000000       2.71807332      -8.16706253        2       -2        1        0        0        0       35       11      -0.00000000       0.00000000      -0.00677240
Si      -1.35903666       1.35903666      -6.79194942        3       -2        1        0        0        0       35       12       0.00000000      -0.00000000      -0.07672847
Si       0.00000000      -0.00000000      -5.43743177        3       -3        1        0        0        0       35       13      -0.00000000       0.00000000       0.03855344
Si       1.35903666       1.35903666      -4.07265623        3       -3        1        0        0        0       35       14       0.00000000      -0.00000000      -0.01895385
Si       0.00000000       2.71807332      -2.71833183        3       -2        1        0        0        0       29       97      -0.00000000       0.00000000       0.03392014
Si      -1.35903666       1.35903666      -1.35826783        4       -2        1        0        0        0       29       98       0.00000000      -0.00000000       0.00105248
16
Lattice="2.7180733233619225 -2.7180733233619225 0.0 2.7180733233619225 2.7180733233619225 0.0 0.0 0.0 31.35248097841861" Properties=species:S:1:pos:R:3:travel:I:3:map_shift:I:3:n_neighb:I:1:orig_index:I:1:forces:R:3 cutoff=2.0 nneightol=1.2 supercell_a1_in_bulk_lattice_coords="1 0 -1" bulk_struct_test=bulk_Si_diamond n_minim_iter=3 energy=-2606.880017138311 stress="0.0013457968096236147 0.0031805359763845 -4.0914931443483454e-16 0.0031805359763845 0.0013457968096235247 6.507520462535217e-16 -4.0914931443483454e-16 6.507520462535217e-16 -0.004442657836092113" free_energy=-2606.880017138311 pbc="T T T"
Si      -0.00000000       0.00000000       0.00072830        0        0        0        0        0        0       29        1       0.00000000      -0.00000000       0.00151893
Si       1.35903666       1.35903666       1.35830836        0        0        0       -1        0        0       29        2      -0.00000000       0.00000000      -0.00151893
Si       0.00000000       2.71807332       2.71606485        0        0        0       -1        0        0       29        3      -0.00000000      -0.00000000      -0.02894518
Si      -1.35903666       1.35903666       4.07090926        1        0        0        0        0        0       29        4       0.00000000       0.00000000       0.03358743
Si       0.00000000      -0.00000000       5.42953752        1       -1        0        0        0        0       29        5      -0.00000000       0.00000000      -0.01724871
Si       1.35903666       1.35903666       6.79045301        1       -1        0        0        0        0       29        6      -0.00000000       0.00000000       0.11424661
Si      -0.00000000       2.71807332       8.16205327        1       -1        0        0        0        0       29        7       0.00000000      -0.00000000       0.00129090
Si      -1.35903666       1.35903666       9.54463768        2       -1        0        0        0        0       29        8      -0.00000000       0.00000000      -0.03529928
Si      -0.00000000       0.00000000      10.89832191        2       -2        0        0        0        0       29        9       0.00000000      -0.00000000       0.06479956
Si       1.35903666       1.35903666      -9.53928525        2       -2        1        0        0        0       29       10      -0.00000000       0.00000000      -0.06479956
Si      -0.00000000       2.71807332      -8.18560102        2       -2        1        0        0        0       35       11       0.00000000      -0.00000000       0.03529928
Si      -1.35903666       1.35903666      -6.80301661        3       -2        1        0        0        0       35       12      -0.00000000       0.00000000      -0.00129090
Si      -0.00000000       0.00000000      -5.43141635        3       -3        1        0        0        0       35       13       0.00000000      -0.00000000      -0.11424661
Si       1.35903666       1.35903666      -4.07050086        3       -3        1        0        0        0       35       14      -0.00000000       0.00000000       0.01724871
Si      -0.00000000       2.71807332      -2.71187260        3       -2        1        0        0        0       29       97       0.00000000      -0.00000000      -0.03358743
Si      -1.35903666       1.35903666      -1.35702819        4       -2        1        0        0        0       29       98      -0.00000000       0.00000000       0.02894518
16
Lattice="2.7180733233619225 -2.7180733233619225 0.0 2.7180733233619225 2.7180733233619225 0.0 0.0 0.0 31.35248097841861" Properties=species:S:1:pos:R:3:travel:I:3:map_shift:I:3:n_neighb:I:1:orig_index:I:1:forces:R:3 cutoff=2.0 nneightol=1.2 supercell_a1_in_bulk_lattice_coords="1 0 -1" bulk_struct_test=bulk_Si_diamond n_minim_iter=4 energy=-2606.8821721520208 stress="0.0018283726574807437 0.003382123673367442 2.9928483254593677e-16 0.003382123673367442 0.001828372657480698 -4.524356306920659e-16 2.9928483254593677e-16 -4.524356306920659e-16 -0.0035181248198992046" free_energy=-2606.8821721520208 pbc="T T T"
Si       0.00000000      -0.00000000       0.00129658        0        0        0        0        0        0       29        1      -0.00000000       0.00000000       0.01075619
Si       1.35903666       1.35903666       1.35774008        0        0        0       -1        0        0       29        2       0.00000000      -0.00000000      -0.01075619
Si      -0.00000000       2.71807332       2.71228190        0        0        0       -1        0        0       29        3      -0.00000000       0.00000000       0.01863286
Si      -1.35903666       1.35903666       4.07033715        1        0        0        0        0        0       29        4      -0.00000000      -0.00000000       0.00503046
Si      -0.00000000      -0.00000000       5.42643182        1       -1        0        0        0        0       29        5      -0.00000000       0.00000000       0.07950875
Si       1.35903666       1.35903666       6.79853980        1       -1        0        0        0        0       29        6       0.00000000      -0.00000000       0.02914664
Si       0.00000000       2.71807332       8.16918158        1       -1        0        0        0        0       29        7      -0.00000000       0.00000000       0.00456295
Si      -1.35903666       1.35903666       9.55249988        2       -1        0        0        0        0       29        8       0.00000000      -0.00000000       0.03076035
Si       0.00000000       0.00000000      10.91930091        2       -2        0        0        0        0       29        9      -0.00000000       0.00000000      -0.00933783
Si       1.35903666       1.35903666      -9.56026425        2       -2        1        0        0        0       29       10       0.00000000      -0.00000000       0.00933783
Si       0.00000000       2.71807332      -8.19346322        2       -2        1        0        0        0       35       11      -0.00000000       0.00000000      -0.03076035
Si      -1.35903666       1.35903666      -6.81014492        3       -2        1        0        0        0       35       12       0.00000000      -0.00000000      -0.00456295
Si       0.00000000      -0.00000000      -5.43950314        3       -3        1        0        0        0       35       13      -0.00000000       0.00000000      -0.02914664
Si       1.35903666       1.35903666      -4.06739516        3       -3        1        0        0        0       35       14       0.00000000      -0.00000000      -0.07950875
Si       0.00000000       2.71807332      -2.71130049        3       -2        1        0        0        0       29       97      -0.00000000       0.00000000      -0.00503046
Si      -1.35903666       1.35903666      -1.35324524        4       -2        1        0        0        0       29       98       0.00000000      -0.00000000      -0.01863286
16
Lattice="2.7180733233619225 -2.7180733233619225 0.0 2.7180733233619225 2.7180733233619225 0.0 0.0 0.0 31.35248097841861" Properties=species:S:1:pos:R:3:travel:I:3:map_shift:I:3:n_neighb:I:1:orig_index:I:1:forces:R:3 cutoff=2.0 nneightol=1.2 supercell_a1_in_bulk_lattice_coords="1 0 -1" bulk_struct_test=bulk_Si_diamond n_minim_iter=5 energy=-2606.883677595539 stress="0.0021161900102955092 0.003148456714555713 -9.153928489748279e-16 0.003148456714555713 0.0021161900102954464 1.4078112903131802e-15 -9.153928489748279e-16 1.4078112903131802e-15 -0.0028437185279679314" free_energy=-2606.883677595539 pbc="T T T"
Si      -0.00000000       0.00000000       0.00355697        0        0        0        0        0        0       29        1       0.00000000      -0.00000000      -0.04168004
Si       1.35903666       1.35903666       1.35547969        0        0        0       -1        0        0       29        2      -0.00000000       0.00000000       0.04168004
Si      -0.00000000       2.71807332       2.71285637        0        0        0       -1        0        0       29        3       0.00000000      -0.00000000       0.01207009
Si      -1.35903666       1.35903666       4.07079998        1        0        0        0        0        0       29        4      -0.00000000       0.00000000       0.08444062
Si      -0.00000000       0.00000000       5.43809233        1       -1        0        0        0        0       29        5       0.00000000      -0.00000000      -0.01516474
Si       1.35903666       1.35903666       6.80925718        1       -1        0        0        0        0       29        6      -0.00000000       0.00000000      -0.00478958
Si      -0.00000000       2.71807332       8.17505762        1       -1        0        0        0        0       29        7       0.00000000      -0.00000000       0.06674192
Si      -1.35903666       1.35903666       9.56310633        2       -1        0        0        0        0       29        8      -0.00000000       0.00000000       0.01967542
Si      -0.00000000       0.00000000      10.93239916        2       -2        0        0        0        0       29        9       0.00000000      -0.00000000      -0.02476596
Si       1.35903666       1.35903666      -9.57336250        2       -2        1        0        0        0       29       10      -0.00000000       0.00000000       0.02476596
Si       0.00000000       2.71807332      -8.20406966        2       -2        1        0        0        0       35       11       0.00000000      -0.00000000      -0.01967542
Si      -1.35903666       1.35903666      -6.81602096        3       -2        1        0        0        0       35       12      -0.00000000       0.00000000      -0.06674192
Si      -0.00000000       0.00000000      -5.45022052        3       -3        1        0        0        0       35       13       0.00000000      -0.00000000       0.00478958
Si       1.35903666       1.35903666      -4.07905567        3       -3        1        0        0        0       35       14      -0.00000000       0.00000000       0.01516474
Si      -0.00000000       2.71807332      -2.71176332        3       -2        1        0        0        0       29       97       0.00000000      -0.00000000      -0.08444062
Si      -1.35903666       1.35903666      -1.35381971        4       -2        1        0        0        0       29       98      -0.00000000       0.00000000      -0.01207009
16
Lattice="2.7180733233619225 -2.7180733233619225 0.0 2.7180733233619225 2.7180733233619225 0.0 0.0 0.0 31.35248097841861" Properties=species:S:1:pos:R:3:travel:I:3:map_shift:I:3:n_neighb:I:1:orig_index:I:1:forces:R:3 cutoff=2.0 nneightol=1.2 supercell_a1_in_bulk_lattice_coords="1 0 -1" bulk_struct_test=bulk_Si_diamond n_minim_iter=6 energy=-2606.887071287316 stress="0.00290270650813786 0.003637764735237898 2.3408882043155602e-15 0.003637764735237898 0.0029027065081379116 -3.86036574574613e-15 2.3408882043155602e-15 -3.86036574574613e-15 -0.0006109144418369954" free_energy=-2606.887071287316 pbc="T T T"
Si       0.00000000      -0.00000000      -0.00271509        0        0        0        0        0        0       29        1      -0.00000000       0.00000000       0.03409686
Si       1.35903666       1.35903666       1.36175175        0        0        0       -1        0        0       29        2       0.00000000      -0.00000000      -0.03409686
Si       0.00000000       2.71807332       2.71850879        0        0        0       -1        0        0       29        3      -0.00000000       0.00000000       0.17473729
Si      -1.35903666       1.35903666       4.09924866        1        0        0        0        0        0       29        4       0.00000000      -0.00000000      -0.05887486
Si       0.00000000      -0.00000000       5.46986808        1       -1        0        0        0        0       29        5      -0.00000000       0.00000000      -0.05206260
Si       1.35903666       1.35903666       6.84125148        1       -1        0        0        0        0       29        6       0.00000000      -0.00000000       0.04494586
Si       0.00000000       2.71807332       8.21505762        1       -1        0        0        0        0       29        7      -0.00000000       0.00000000       0.00092990
Si      -1.35903666       1.35903666       9.60211266        2       -1        0        0        0        0       29        8      -0.00000000      -0.00000000      -0.01313234
Si       0.00000000      -0.00000000      10.96556117        2       -2        0        0        0        0       29        9      -0.00000000       0.00000000       0.00898668
Si       1.35903666       1.35903666      -9.60652451        2       -2        1        0        0        0       29       10       0.00000000      -0.00000000      -0.00898668
Si       0.00000000       2.71807332      -8.24307600        2       -2        1        0        0        0       35       11      -0.00000000      -0.00000000       0.01313234
Si      -1.35903666       1.35903666      -6.85602096        3       -2        1        0        0        0       35       12       0.00000000      -0.00000000      -0.00092990
Si       0.00000000      -0.00000000      -5.48221482        3       -3        1        0        0        0       35       13      -0.00000000       0.00000000      -0.04494586
Si       1.35903666       1.35903666      -4.11083142        3       -3        1        0        0        0       35       14       0.00000000      -0.00000000       0.05206260
Si       0.00000000       2.71807332      -2.74021200        3       -2        1        0        0        0       29       97      -0.00000000       0.00000000       0.05887486
Si      -1.35903666       1.35903666      -1.35947212        4       -2        1        0        0        0       29       98       0.00000000      -0.00000000      -0.17473729
16
Lattice="2.7180733233619225 -2.7180733233619225 0.0 2.7180733233619225 2.7180733233619225 0.0 0.0 0.0 31.35248097841861" Properties=species:S:1:pos:R:3:travel:I:3:map_shift:I:3:n_neighb:I:1:orig_index:I:1:forces:R:3 cutoff=2.0 nneightol=1.2 supercell_a1_in_bulk_lattice_coords="1 0 -1" bulk_struct_test=bulk_Si_diamond n_minim_iter=7 energy=-2606.8891176545626 stress="0.003237533624134366 0.0033716939507950545 2.835950998819565e-16 0.0033716939507950545 0.0032375336241343778 -3.6934491755333657e-16 2.835950998819565e-16 -3.6934491755333657e-16 0.00032239980685847214" free_energy=-2606.8891176545626 pbc="T T T"
Si      -0.00000000       0.00000000      -0.00381410        0        0        0        0        0        0       29        1       0.00000000       0.00000000      -0.02885998
Si       1.35903666       1.35903666       1.36285076        0        0        0       -1        0        0       29        2      -0.00000000       0.00000000       0.02885998
Si       0.00000000       2.71807332       2.73265055        0        0        0       -1        0        0       29        3       0.00000000      -0.00000000       0.04093738
Si      -1.35903666       1.35903666       4.10862289        1        0        0        0        0        0       29        4      -0.00000000       0.00000000      -0.03063174
Si      -0.00000000       0.00000000       5.47924073        1       -1        0        0        0        0       29        5       0.00000000      -0.00000000       0.00255979
Si       1.35903666       1.35903666       6.85729144        1       -1        0        0        0        0       29        6       0.00000000      -0.00000000       0.00642953
Si      -0.00000000       2.71807332       8.23286395        1       -1        0        0        0        0       29        7      -0.00000000       0.00000000      -0.03177148
Si      -1.35903666       1.35903666       9.61766370        2       -1        0        0        0        0       29        8       0.00000000      -0.00000000      -0.01073440
Si       0.00000000       0.00000000      10.97936339        2       -2        0        0        0        0       29        9      -0.00000000       0.00000000       0.02043830
Si       1.35903666       1.35903666      -9.62032673        2       -2        1        0        0        0       29       10      -0.00000000       0.00000000      -0.02043830
Si      -0.00000000       2.71807332      -8.25862704        2       -2        1        0        0        0       35       11       0.00000000      -0.00000000       0.01073440
Si      -1.35903666       1.35903666      -6.87382729        3       -2        1        0        0        0       35       12       0.00000000      -0.00000000       0.03177148
Si       0.00000000      -0.00000000      -5.49825478        3       -3        1        0        0        0       35       13      -0.00000000       0.00000000      -0.00642953
Si       1.35903666       1.35903666      -4.12020407        3       -3        1        0        0        0       35       14       0.00000000       0.00000000      -0.00255979
Si       0.00000000       2.71807332      -2.74958623        3       -2        1        0        0        0       29       97      -0.00000000      -0.00000000       0.03063174
Si      -1.35903666       1.35903666      -1.37361389        4       -2        1        0        0        0       29       98       0.00000000       0.00000000      -0.04093738
16
Lattice="2.7180733233619225 -2.7180733233619225 0.0 2.7180733233619225 2.7180733233619225 0.0 0.0 0.0 31.35248097841861" Properties=species:S:1:pos:R:3:travel:I:3:map_shift:I:3:n_neighb:I:1:orig_index:I:1:forces:R:3 cutoff=2.0 nneightol=1.2 supercell_a1_in_bulk_lattice_coords="1 0 -1" bulk_struct_test=bulk_Si_diamond n_minim_iter=8 energy=-2606.8893210935066 stress="0.00327432375835999 0.0034213171415066286 8.676935840841199e-16 0.0034213171415066286 0.0032743237583600284 -1.2416467122735784e-15 8.676935840841199e-16 -1.2416467122735784e-15 0.00038545199226153686" free_energy=-2606.8893210935066 pbc="T T T"
Si       0.00000000       0.00000000      -0.00689641        0        0        0        0        0        0       29        1      -0.00000000       0.00000000       0.02527640
Si       1.35903666       1.35903666       1.36593307        0        0        0       -1        0        0       29        2       0.00000000      -0.00000000      -0.02527640
Si       0.00000000       2.71807332       2.73458042        0        0        0       -1        0        0       29        3      -0.00000000       0.00000000       0.03220995
Si      -1.35903666       1.35903666       4.10891675        1        0        0        0        0        0       29        4       0.00000000      -0.00000000      -0.01267142
Si      -0.00000000      -0.00000000       5.48027474        1       -1        0        0        0        0       29        5      -0.00000000       0.00000000      -0.00434591
Si       1.35903666       1.35903666       6.85806856        1       -1        0        0        0        0       29        6       0.00000000      -0.00000000       0.00125146
Si      -0.00000000       2.71807332       8.23261669        1       -1        0        0        0        0       29        7      -0.00000000       0.00000000      -0.01915663
Si      -1.35903666       1.35903666       9.61826198        2       -1        0        0        0        0       29        8      -0.00000000      -0.00000000      -0.00876302
Si       0.00000000       0.00000000      10.98109167        2       -2        0        0        0        0       29        9      -0.00000000       0.00000000       0.01373418
Si       1.35903666       1.35903666      -9.62205501        2       -2        1        0        0        0       29       10       0.00000000      -0.00000000      -0.01373418
Si       0.00000000       2.71807332      -8.25922531        2       -2        1        0        0        0       35       11      -0.00000000       0.00000000       0.00876302
Si      -1.35903666       1.35903666      -6.87358003        3       -2        1        0        0        0       35       12       0.00000000      -0.00000000       0.01915663
Si       0.00000000      -0.00000000      -5.49903190        3       -3        1        0        0        0       35       13      -0.00000000       0.00000000      -0.00125146
Si       1.35903666       1.35903666      -4.12123808        3       -3        1        0        0        0       35       14       0.00000000      -0.00000000       0.00434591
Si       0.00000000       2.71807332      -2.74988009        3       -2        1        0        0        0       29       97      -0.00000000       0.00000000       0.01267142
Si      -1.35903666       1.35903666      -1.37554376        4       -2        1        0        0        0       29       98       0.00000000      -0.00000000      -0.03220995
16
Lattice="2.7180733233619225 -2.7180733233619225 0.0 2.7180733233619225 2.7180733233619225 0.0 0.0 0.0 31.35248097841861" Properties=species:S:1:pos:R:3:travel:I:3:map_shift:I:3:n_neighb:I:1:orig_index:I:1:forces:R:3 cutoff=2.0 nneightol=1.2 supercell_a1_in_bulk_lattice_coords="1 0 -1" bulk_struct_test=bulk_Si_diamond n_minim_iter=9 energy=-2606.8894209548253 stress="0.003288838954541297 0.0033785688679662603 1.6885045175718352e-16 0.0033785688679662603 0.003288838954541343 -3.3039885979820284e-16 1.6885045175718352e-16 -3.3039885979820284e-16 0.00036080141072343557" free_energy=-2606.8894209548253 pbc="T T T"
Si       0.00000000       0.00000000      -0.00657004        0        0        0        0        0        0       29        1      -0.00000000      -0.00000000       0.01110000
Si       1.35903666       1.35903666       1.36560670        0        0        0       -1        0        0       29        2       0.00000000      -0.00000000      -0.01110000
Si       0.00000000       2.71807332       2.73573869        0        0        0       -1        0        0       29        3      -0.00000000       0.00000000       0.02046906
Si      -1.35903666       1.35903666       4.11006681        1        0        0        0        0        0       29        4       0.00000000      -0.00000000      -0.02584500
Si      -0.00000000      -0.00000000       5.48003516        1       -1        0        0        0        0       29        5      -0.00000000       0.00000000      -0.00635322
Si       1.35903666       1.35903666       6.85627184        1       -1        0        0        0        0       29        6       0.00000000      -0.00000000       0.01022858
Si      -0.00000000       2.71807332       8.23014703        1       -1        0        0        0        0       29        7       0.00000000       0.00000000      -0.00544870
Si      -1.35903666       1.35903666       9.61693364        2       -1        0        0        0        0       29        8       0.00000000      -0.00000000      -0.00366179
Si       0.00000000       0.00000000      10.98190224        2       -2        0        0        0        0       29        9      -0.00000000       0.00000000       0.00114578
Si       1.35903666       1.35903666      -9.62286558        2       -2        1        0        0        0       29       10      -0.00000000       0.00000000      -0.00114578