63
Lattice="10.87229329344769 0.0 0.0 0.0 10.87229329344769 0.0 0.0 0.0 10.87229329344769" Properties=species:S:1:pos:R:3:forces:R:3 cutoff=-1.0 nneightol=1.2 vacancies=0 relax_radial_0=0.13 relax_symm_break_0=0.01 bulk_struct_test=bulk_Si_diamond supercell_a1_in_bulk_lattice_coords="2 2 -2" n_minim_iter=8 energy=-10276.602055060777 stress="0.0007717723392471077 1.4960610953758342e-06 -9.583111254144639e-05 1.4960610953758342e-06 0.0007863753934468127 -0.00019251616817641664 -9.583111254144639e-05 -0.00019251616817641664 0.0007912301866686334" free_energy=-10276.602055060777 pbc="T T T"
Si       2.66445799       2.66449827       0.01994989       0.00360131       0.00399940      -0.00361860
Si       2.66568839       0.01904941       2.66580474       0.00324405      -0.00301583       0.00407389
Si       0.01825105       2.66679269       2.66686855      -0.00243319       0.00330007       0.00373219
Si       1.19992920       1.20242201       1.20528362       0.00118263      -0.00020591      -0.00160868
Si       4.06151627       4.06149961       1.35168964      -0.00294824      -0.00277101      -0.00145351
Si       4.06140134       1.35261153       4.06134257      -0.00285129      -0.00140764      -0.00250677
Si       1.35349519       4.06119568       4.06115347      -0.00135168      -0.00262983      -0.00246177
Si       0.00056395       0.00028159       5.43614183       0.00025740       0.00013214      -0.00006222
Si       2.71439848       2.71397825       5.43647903       0.00105887       0.00125629      -0.00064757
Si       2.66165442      -0.01978328       8.21052475       0.00389914       0.00280602      -0.00472126
Si      -0.01967821       2.65869867       8.21352091       0.00192995       0.00450247      -0.00492724
Si       1.35696037       1.35688269       6.81217806      -0.00038118      -0.00047601      -0.00190818
Si       4.07621449       4.07550918       6.79747752       0.00033595       0.00029918      -0.00018101
Si       4.06050898       1.35636465       9.51601929       0.00253814      -0.00038197       0.00049431
Si       1.35668755       4.06027318       9.51577429      -0.00032349       0.00222522       0.00053111
Si       0.00056397       5.43646817       0.00000121       0.00025698       0.00044514      -0.00004945
Si       2.66302388       8.20904129      -0.01880655       0.00354736      -0.00482958       0.00225039
Si       2.71510839       5.43589690       2.71423468       0.00052852      -0.00083443       0.00090133
Si      -0.01850286       8.21492078       2.65726114       0.00053341      -0.00519688       0.00474207
Si       1.35758621       6.81132840       1.35741119      -0.00082410      -0.00081856      -0.00104106
Si       4.06145307       9.51581665       1.35658210       0.00156036       0.00101957      -0.00089256
Si       4.07668657       6.79776520       4.07523625       0.00028175      -0.00018325       0.00030054
Si       1.35728090       9.51529356       4.06104857      -0.00075538       0.00110073       0.00107035
Si       0.00039741       5.43805008       5.43614650       0.00100368      -0.00169902      -0.00000474
Si       2.71478880       8.15889231       5.43686483       0.00069777      -0.00128090       0.00084889
Si       2.71409161       5.43632435       8.15909304       0.00125073       0.00069452      -0.00166099
Si       0.01716420       8.20681918       8.20693262      -0.00116826      -0.00416332      -0.00370254
Si       1.35362675       6.81300595       6.81292900      -0.00218195       0.00178790       0.00193089
Si       4.05982113       9.52146474       6.81255000      -0.00248736       0.00227600       0.00218270
Si       4.05977084       6.81267692       9.52049165      -0.00234842       0.00190304       0.00225626
Si       1.19205650       9.67180964       9.67500509       0.00214156       0.00201796       0.00063569
Si       5.43678975       0.00028162       0.00000119       0.00089720       0.00013130      -0.00004921
Si       8.21040436       2.66154822      -0.01767409      -0.00519374       0.00382283       0.00092463
Si       8.21328795      -0.01747460       2.65874089      -0.00535208       0.00007772       0.00441069
Si       5.43528471       2.71540133       2.71494788      -0.00107109       0.00024899       0.00042482
Si       6.81041891       1.35815229       1.35805464       0.00024741      -0.00138275      -0.00150685
Si       9.51539327       4.06214056       1.35712845       0.00159732       0.00029064      -0.00132784
Si       9.51511548       1.35750460       4.06197179       0.00164212      -0.00124722       0.00011579
Si       6.79805796       4.07643811       4.07569302      -0.00012605       0.00021494       0.00027285
Si       5.43995675       0.00019921       5.43614646      -0.00338777       0.00050074      -0.00000498
Si       8.15908085       2.71472882       5.43792334      -0.00115793       0.00057847       0.00104790
Si       8.20924639       0.01682943       8.20951290      -0.00486588      -0.00042047      -0.00391947
Si       5.43689527       2.71335625       8.15940821       0.00075656       0.00167936      -0.00189313
Si       6.81473562       1.35285143       6.81453814       0.00113785      -0.00304249       0.00138538
Si       9.52239262       4.05800312       6.81435161       0.00306337      -0.00188836       0.00175866
Si       9.67636930       1.18649290       9.68306084       0.00243189       0.00164363      -0.00025898
Si       6.81459526       4.05795660       9.52038309       0.00120702      -0.00158211       0.00306176
Si       5.43995719       5.43805095       0.00003431      -0.00338778      -0.00169891      -0.00010152
Si       8.21199122       8.21214417       0.01655217      -0.00502240      -0.00453587       0.00039025
Si       8.15942787       5.43847294       2.71392881      -0.00139261       0.00105715       0.00098378
Si       5.43798543       8.15955445       2.71325326       0.00092116      -0.00174751       0.00153321
Si       6.81644064       6.81631987       1.35201332       0.00058755       0.00069436      -0.00387010
Si       9.68449753       9.68799463       1.18122364       0.00144547       0.00014169       0.00121349
Si       9.52230838       6.81624675       4.05614299       0.00384858       0.00096880      -0.00107660
Si       6.81636419       9.52127207       4.05614622       0.00069570       0.00386540      -0.00090966
Si       5.43671050       5.43642851       5.43614092      -0.00169390      -0.00084725      -0.00002001
Si       8.15875223       8.15820330       5.43330861      -0.00089834      -0.00070331      -0.00123906
Si       8.15839268       5.43381633       8.15734759      -0.00068958      -0.00126353      -0.00032244
Si       5.43426250       8.15749103       8.15699467      -0.00130141      -0.00033690      -0.00016265
Si       6.79761796       6.79686836       6.79610836      -0.00011940      -0.00014661      -0.00008311
Si       9.51483218       9.51470895       6.80941146       0.00206470       0.00192117       0.00098633
Si       9.51452198       6.80950603       9.51428504       0.00212009       0.00109158       0.00183338
Si       6.80951979       9.51405638       9.51394290       0.00120100       0.00204299       0.00190021
