63
Lattice="10.87229329344769 0.0 0.0 0.0 10.87229329344769 0.0 0.0 0.0 10.87229329344769" Properties=species:S:1:pos:R:3:forces:R:3 cutoff=-1.0 nneightol=1.2 vacancies=0 relax_radial_0=0.13 relax_symm_break_0=0.01 bulk_struct_test=bulk_Si_diamond supercell_a1_in_bulk_lattice_coords="2 2 -2" n_minim_iter=1 energy=-10276.09371816644 stress="0.00022261461900836688 6.618097261573993e-06 -9.322530068196747e-05 6.618097261573993e-06 0.0002240341656883019 -0.0001865301106687801 -9.322530068196747e-05 -0.0001865301106687801 0.00022452131664250983" free_energy=-10276.09371816644 pbc="T T T"
Si       2.71807333       2.71807333       0.00000000      -0.53787543      -0.53726956       0.13181221
Si       2.71807333       0.00000000       2.71807333      -0.53971105       0.13599201      -0.53852449
Si       0.00000000       2.71807333       2.71807333       0.13978389      -0.54117565      -0.54059368
Si       1.18236190       1.18236190       1.18236190       0.32070981       0.34264764       0.36599517
Si       4.07710998       4.07710998       1.35903666      -0.04146565      -0.04225653       0.10056306
Si       4.07710998       1.35903666       4.07710998      -0.04108187       0.09985925      -0.04265977
Si       1.35903666       4.07710998       4.07710998       0.09922155      -0.04153313      -0.04232015
Si       0.00000000       0.00000000       5.43614664       0.00070396       0.00035260      -0.00009276
Si       2.71807333       2.71807333       5.43614664      -0.00659007      -0.00780722      -0.04107208
Si       2.71807333       0.00000000       8.15421997      -0.56254430      -0.12989691       0.56132155
Si       0.00000000       2.71807333       8.15421997      -0.12636437      -0.58539252       0.58477609
Si       1.35903666       1.35903666       6.79518330       0.06834979       0.07202124       0.02685974
Si       4.07710998       4.07710998       6.79518330      -0.02392993      -0.02392022       0.02395744
Si       4.07710998       1.35903666       9.51325663      -0.02529802       0.06520848      -0.06901539
Si       1.35903666       4.07710998       9.51325663       0.06485299      -0.02608406      -0.07233064
Si       0.00000000       5.43614664       0.00000000       0.00070436       0.00047092       0.00002269
Si       2.71807333       8.15421997       0.00000000      -0.56449691       0.56269298      -0.13426693
Si       2.71807333       5.43614664       2.71807333      -0.00556199      -0.04174501      -0.00794007
Si       0.00000000       8.15421997       2.71807333      -0.12598526       0.60852572      -0.60914227
Si       1.35903666       6.79518330       1.35903666       0.06811943       0.02823447       0.07545001
Si       4.07710998       9.51325663       1.35903666      -0.02575083      -0.06927931       0.06541491
Si       4.07710998       6.79518330       4.07710998      -0.02415605       0.02412288      -0.02408732
Si       1.35903666       9.51325663       4.07710998       0.06459064      -0.07578339      -0.02742829
Si       0.00000000       5.43614664       5.43614664       0.00764165       0.00103097       0.00008981
Si       2.71807333       8.15421997       5.43614664      -0.00491171       0.00855313       0.03879009
Si       2.71807333       5.43614664       8.15421997      -0.00595633       0.03815834       0.00843875
Si       0.00000000       8.15421997       8.15421997       0.14185462       0.56728652       0.56787127
Si       1.35903666       6.79518330       6.79518330       0.10327500       0.04735480       0.04658858
Si       4.07710998       9.51325663       6.79518330      -0.04592155      -0.10529786       0.04746793
Si       4.07710998       6.79518330       9.51325663      -0.04558406       0.04789667      -0.10455836
Si       1.16877153       9.70352176       9.70352176       0.33526232      -0.40384481      -0.37959732
Si       5.43614664       0.00000000       0.00000000       0.00094961       0.00035340       0.00002257
Si       8.15421997       2.71807333       0.00000000       0.58797280      -0.58978096      -0.13507075
Si       8.15421997       0.00000000       2.71807333       0.61035780      -0.13030869      -0.61158372
Si       5.43614664       2.71807333       2.71807333      -0.04246037      -0.00576304      -0.00692391
Si       6.79518330       1.35903666       1.35903666       0.02959887       0.07166951       0.07533020
Si       9.51325663       4.07710998       1.35903666      -0.07290566      -0.02701392       0.06519717
Si       9.51325663       1.35903666       4.07710998      -0.07609438       0.06472750      -0.02790882
Si       6.79518330       4.07710998       4.07710998       0.02428754      -0.02432577      -0.02426673
Si       5.43614664       0.00000000       5.43614664       0.00206040       0.00381888       0.00008982
Si       8.15421997       2.71807333       5.43614664       0.00809844      -0.00446081       0.03653473
Si       8.15421997       0.00000000       8.15421997       0.59050320       0.13885489       0.59169822
Si       5.43614664       2.71807333       8.15421997       0.03530733      -0.00656968       0.00783569
Si       6.79518330       1.35903666       6.79518330       0.05268752       0.10791647       0.05119159
Si       9.51325663       4.07710998       6.79518330      -0.11004383      -0.05116821       0.05192432
Si       9.71711213       1.15518116       9.71711213      -0.44080158       0.36955092      -0.39194610
Si       6.79518330       4.07710998       9.51325663       0.05288731      -0.05063525      -0.10856135
Si       5.43614664       5.43614664       0.00000000       0.00206000       0.00103018       0.00020368
Si       8.15421997       8.15421997       0.00000000       0.61301923       0.61362959       0.13425849
Si       8.15421997       5.43614664       2.71807333       0.00749504       0.03366206      -0.00501620
Si       5.43614664       8.15421997       2.71807333       0.03306432       0.00734518      -0.00607969
Si       6.79518330       6.79518330       1.35903666       0.05727864       0.05654825       0.11255844
Si       9.73070250       9.73070250       1.14159080      -0.45052448      -0.42592220       0.40263424
Si       9.51325663       6.79518330       4.07710998      -0.11397937       0.05688956      -0.05615297
Si       6.79518330       9.51325663       4.07710998       0.05742708      -0.11323730      -0.05596008
Si       5.43614664       5.43614664       5.43614664       0.00080240       0.00040117      -0.00002108
Si       8.15421997       8.15421997       5.43614664       0.00644517       0.00523190      -0.03430312
Si       8.15421997       5.43614664       8.15421997       0.00706365      -0.03721308       0.00469226
Si       5.43614664       8.15421997       8.15421997      -0.04018202       0.00650164       0.00534285
Si       6.79518330       6.79518330       6.79518330       0.02442031       0.02443507       0.02449581
Si       9.51325663       9.51325663       6.79518330      -0.07278224      -0.06893686       0.02828844
Si       9.51325663       6.79518330       9.51325663      -0.07600438       0.02922022      -0.06844025
Si       6.79518330       9.51325663       9.51325663       0.03010699      -0.07557304      -0.07185351
63
Lattice="10.87229329344769 0.0 0.0 0.0 10.87229329344769 0.0 0.0 0.0 10.87229329344769" Properties=species:S:1:pos:R:3:forces:R:3 cutoff=-1.0 nneightol=1.2 vacancies=0 relax_radial_0=0.13 relax_symm_break_0=0.01 bulk_struct_test=bulk_Si_diamond supercell_a1_in_bulk_lattice_coords="2 2 -2" n_minim_iter=2 energy=-10276.534581030432 stress="0.0002652996685790066 4.741865557135605e-06 -0.000153808202139786 4.741865557135605e-06 0.000273250746457424 -0.00030718389976815526 -0.000153808202139786 -0.00030718389976815526 0.00027592622101589337" free_energy=-10276.534581030432 pbc="T T T"
Si       2.67151810       2.67157054       0.01140886       0.04671554       0.04977282       0.08134124
Si       2.67135922       0.01177064       2.67146192       0.05513125       0.07303384       0.06129018
Si       0.01209884       2.67123245       2.67128282       0.06507905       0.06640392       0.06950420
Si       1.21012059       1.21201940       1.21404022       0.02019188       0.01598195       0.01258280
Si       4.07352096       4.07345251       1.36774079      -0.15821683      -0.15809111      -0.20601495
Si       4.07355418       1.36767987       4.07341761      -0.15902931      -0.20218345      -0.15876993
Si       1.36762468       4.07351512       4.07344700      -0.19840081      -0.15990574      -0.15977245
Si       0.00006093       0.00003052       5.43613861      -0.00129985      -0.00064733       0.00010516
Si       2.71750293       2.71739758       5.43259169       0.04667692       0.04871222       0.04808824
Si       2.66938291      -0.01124309       8.20280455       0.03605202      -0.09612889      -0.04224537
Si      -0.01093733       2.66740530       8.20483463      -0.11180367       0.02674869      -0.02988503
Si       1.36495261       1.36527038       6.79750812      -0.08029508      -0.08374332       0.11855972
Si       4.07503875       4.07503959       6.79725692       0.00715315       0.00850351      -0.00993644
Si       4.07492034       1.36468071       9.50728308      -0.11936300      -0.08216307       0.08502410
Si       1.36464994       4.07485230       9.50699613      -0.07953100      -0.11872729       0.08584049
Si       0.00006097       5.43618740       0.00000196      -0.00130149       0.00413868       0.00008565
Si       2.66921390       8.20292325      -0.01162133       0.04455888      -0.05391224      -0.08793701
Si       2.71759191       5.43253345       2.71738608       0.04583653       0.04907350       0.04977724
Si      -0.01090452       8.20689026       2.66534967      -0.12041786      -0.02752032       0.02432556
Si       1.36493267       6.79762711       1.36556716      -0.07838844       0.11922935      -0.08578094
Si       4.07488114       9.50726023       1.36469858      -0.12121687       0.08633035      -0.08351610
Si       4.07501918       6.79727123       4.07502513       0.00674783      -0.01093794       0.00946025
Si       1.36462724       9.50669728       4.07473595      -0.07767817       0.08788527      -0.11941227
Si       0.00066141       5.43623588       5.43615441      -0.01252079       0.00820442       0.00018627
Si       2.71764820       8.15496027       5.43950408       0.04432175      -0.05055564      -0.04840171
Si       2.71755778       5.43944940       8.15495037       0.04517526      -0.04744547      -0.04945833
Si       0.01227807       8.20332084       8.20337146       0.07252526      -0.07038261      -0.06722635
Si       1.36797552       6.79928205       6.79921573      -0.20399973       0.16793491       0.16804571
Si       4.07313529       9.50414269       6.79929184      -0.16526315       0.21546112       0.16506336
Si       4.07316450       6.79932895       9.50420669      -0.16607124       0.16575953       0.21159403
Si       1.19778980       9.66856741       9.67066612       0.03681935      -0.02681993      -0.02928937
Si       5.43622883       0.00003059       0.00000195       0.00826628      -0.00065060       0.00008577
Si       8.20511132       2.66702547      -0.01169090      -0.05320085       0.04367677      -0.09604790
Si       8.20704883      -0.01127873       2.66513835      -0.03913283      -0.11287338       0.03270916
Si       5.43247153       2.71757451       2.71747403       0.05011878       0.04705095       0.04895684
Si       6.79774520       1.36523994       1.36555679       0.12028724      -0.08044898      -0.08439954
Si       9.50694636       4.07477182       1.36467973       0.08842546      -0.12233654      -0.08229122
Si       9.50667036       1.36463908       4.07469436       0.08916521      -0.07908043      -0.12116174
Si       6.79728549       4.07500449       4.07500960      -0.01197342       0.00765532       0.00901523
Si       5.43632498       0.00033054       5.43615442       0.01642997      -0.00625572       0.00018627
Si       8.15492092       2.71768723       5.43930887      -0.05047125       0.04409954      -0.04875136
Si       8.20533034       0.01201844       8.20543377      -0.06142791       0.08861113      -0.05504355
Si       5.43920263       2.71750469       8.15489818      -0.04683426       0.04581024      -0.04805819
Si       6.79974362       1.36837726       6.79961414       0.17469838      -0.21319856       0.17486942
Si       9.50373191       4.07268117       6.79967756       0.22475612      -0.17198390       0.17190939
Si       9.67895902       1.18716725       9.68318766      -0.04312843       0.05022061      -0.04694182
Si       6.79976091       4.07272730       9.50386022       0.17352511      -0.17377183       0.21700799
Si       5.43632494       5.43623581       0.00001763       0.01643324       0.00821095       0.00007416
Si       8.20727919       8.20733202       0.01162060      -0.04738550      -0.04415760       0.10559158
Si       8.15486869       5.43906023       2.71763915      -0.04916812      -0.04810736       0.04470211
Si       5.43900849       8.15485572       2.71754710      -0.04714491      -0.04785050       0.04555698
Si       6.80014100       6.80007778       1.36877904       0.18131001       0.18137090      -0.22219442
Si       9.69170783       9.69383726       1.17644037      -0.06206258      -0.06336138       0.06562368
Si       9.50339127       6.80010732       4.07224972       0.22991118       0.17923096      -0.17928485
Si       6.80015384       9.50345550       4.07226641       0.18014594       0.22603351      -0.18026112
Si       5.43621609       5.43618136       5.43614482       0.00114995       0.00057570       0.00001826
Si       8.15477782       8.15467281       5.43317757      -0.04832804      -0.04615511       0.04913722
Si       8.15483135       5.43292570       8.15462610      -0.04964096       0.04980718      -0.04551585
Si       5.43266873       8.15478271       8.15468241       0.05050133      -0.04890306      -0.04695086
Si       6.79729698       6.79729826       6.79730351      -0.01148289      -0.01000419      -0.00860347
Si       9.50695704       9.50728988       6.79763178       0.08772368       0.08439824       0.12383219
Si       9.50667815       6.79771243       9.50733286       0.08841201       0.12263118       0.08117105
Si       6.79778918       9.50671549       9.50703743       0.12193468       0.08574627       0.08183063
63
Lattice="10.87229329344769 0.0 0.0 0.0 10.87229329344769 0.0 0.0 0.0 10.87229329344769" Properties=species:S:1:pos:R:3:forces:R:3 cutoff=-1.0 nneightol=1.2 vacancies=0 relax_radial_0=0.13 relax_symm_break_0=0.01 bulk_struct_test=bulk_Si_diamond supercell_a1_in_bulk_lattice_coords="2 2 -2" n_minim_iter=3 energy=-10276.592104677313 stress="0.00032425153288737605 3.490497738150975e-06 -0.000105812603018486 3.490497738150975e-06 0.0003348781979818228 -0.00021170344470570568 -0.000105812603018486 -0.00021170344470570568 0.0003384391291887117" free_energy=-10276.592104677313 pbc="T T T"
Si       2.66705267       2.66731111       0.01849955       0.03595753       0.03576776      -0.02705483
Si       2.66741210       0.01838264       2.66792933       0.03969545      -0.02944335       0.03943845
Si       0.01824953       2.66799344       2.66825226      -0.03143848       0.04277069       0.04270338
Si       1.21588803       1.21782003       1.21994606      -0.03996005      -0.04071378      -0.04153117
Si       4.06271944       4.06264810       1.35582666      -0.00722024      -0.00716619      -0.03699946
Si       4.06270549       1.35600355       4.06256372      -0.00616219      -0.03627183      -0.00609364
Si       1.35618393       4.06260351       4.06253306      -0.03565682      -0.00524452      -0.00523138
Si      -0.00001327      -0.00000641       5.43614412       0.00288476       0.00144424       0.00012396
Si       2.72042766       2.72043691       5.43512782      -0.05510160      -0.05527403      -0.00979235
Si       2.66388511      -0.01926276       8.20788510       0.03683736       0.02692245      -0.03651924
Si      -0.01992081       2.66098837       8.21104031       0.02593597       0.03639420      -0.03626631
Si       1.36071471       1.36086074       6.80554362      -0.02566459      -0.02163701       0.04668263
Si       4.07516803       4.07525628       6.79694815       0.04159249       0.04131069      -0.04107955
Si       4.06685465       1.36027839       9.51181732      -0.04231406      -0.02398231       0.02007636
Si       1.36041277       4.06681676       9.51153700      -0.02686027      -0.04463401       0.01892510
Si      -0.00001334       5.43646141       0.00000781       0.00288471       0.00114156      -0.00009581
Si       2.66423868       8.20726893      -0.01917242       0.04112010      -0.04081986       0.02970820
Si       2.72047664       5.43512389       2.72049238      -0.05536190      -0.01063904      -0.05566780
Si      -0.02043940       8.21357922       2.65844567       0.02762655      -0.04017010       0.04021182
Si       1.36081478       6.80572501       1.36107354      -0.02760973       0.04672338      -0.01937151
Si       4.06668936       9.51187522       1.36021169      -0.03999079       0.01905603      -0.02298847
Si       4.07511912       6.79690005       4.07530132       0.04187346      -0.04108342       0.04129923
Si       1.36050615       9.51132225       4.06663744      -0.02886191       0.01668621      -0.04475775
Si      -0.00004139       5.43678042       5.43616770       0.00191752       0.00607599       0.00013502
Si       2.72044409       8.15181220       5.43691593      -0.05595380       0.05649589       0.01366002
Si       2.72039429       5.43691426       8.15187162      -0.05569993       0.01284096       0.05610045
Si       0.01893878       8.20666606       8.20692878      -0.03412354      -0.04793605      -0.04791853
Si       1.35622935       6.81079354       6.81072372      -0.03659081       0.00992869       0.00996072
Si       4.06181640       9.51660138       6.81061933      -0.01294861       0.03862015       0.01276437
Si       4.06179809       6.81070740       9.51642577      -0.01182630       0.01160617       0.03783291
Si       1.20483426       9.66121485       9.66349137      -0.03287442       0.03563994       0.03469109
Si       5.43677625      -0.00000654       0.00000781       0.00227989       0.00144414      -0.00009579
Si       8.20985473       2.66164142      -0.01977733      -0.04556436       0.04561006       0.03190169
Si       8.21301285      -0.02038622       2.65874216      -0.04518874       0.03080432       0.04516548
Si       5.43511957       2.72053492       2.72054146      -0.01137877      -0.05591519      -0.05604744
Si       6.80593046       1.36103829       1.36115078       0.04664313      -0.02539473      -0.02118321
Si       9.51164628       4.06649010       1.36026897       0.01691544      -0.04014321      -0.02496392
Si       9.51137372       1.36042928       4.06647611       0.01569721      -0.02796233      -0.04259529
Si       6.79684967       4.07516072       4.07525453      -0.04114092       0.04188271       0.04159135
Si       5.43741541      -0.00002059       5.43616770       0.01215260       0.00096133       0.00013618
Si       8.15177197       2.72047503       5.43666674       0.05778300      -0.05722686       0.01719586
Si       8.20957729       0.01967693       8.21010994      -0.04943678      -0.03432505      -0.04935506
Si       5.43666732       2.72037370       8.15190151       0.01572094      -0.05660515       0.05683171
Si       6.81176639       1.35610121       6.81162715       0.01568550      -0.03829683       0.01583284
Si       9.51672524       4.06085496       6.81150948       0.04048730      -0.01891975       0.01878927
Si       9.67003830       1.19555486       9.67470031       0.02924571      -0.02605077       0.02713055
Si       6.81171064       4.06079296       9.51637347       0.01648979      -0.01677124       0.03891799
Si       5.43741558       5.43678076       0.00002526       0.01215323       0.00607757      -0.00007510
Si       8.21274692       8.21301684       0.02031247      -0.04964947      -0.04958470      -0.03362575
Si       8.15179556       5.43641975       2.72045817       0.05864076       0.01982772      -0.05822301
Si       5.43642189       8.15186565       2.72040656       0.01917263       0.05808387      -0.05785311
Si       6.81265492       6.81258547       1.35598624       0.02187165       0.02198728      -0.04025908
Si       9.68142823       9.68381605       1.18628373       0.02093106       0.01975516      -0.01851615
Si       9.51666298       6.81248147       4.05988233       0.04170268       0.02384107      -0.02399354
Si       6.81259461       9.51648694       4.05983862       0.02271441       0.04092722      -0.02298363
Si       5.43630157       5.43622415       5.43614570      -0.00181520      -0.00090861       0.00001143
Si       8.15174437       8.15176290       5.43587568       0.05912756       0.05894158      -0.02038630
Si       8.15172166       5.43562662       8.15174999       0.05827037      -0.01778372       0.05794405
Si       5.43537319       8.15171288       8.15172262      -0.01498849       0.05736144       0.05722333
Si       6.79689471       6.79699175       6.79708838      -0.04143520      -0.04166888      -0.04194293
Si       9.51161332       9.51178476       6.80602789       0.01874250       0.02286020       0.04012804
Si       9.51133408       6.80604389       9.51162610       0.01747135       0.04250669       0.02583464
Si       6.80608797       9.51120515       9.51132580       0.04459335       0.02027516       0.02451901
63
Lattice="10.87229329344769 0.0 0.0 0.0 10.87229329344769 0.0 0.0 0.0 10.87229329344769" Properties=species:S:1:pos:R:3:forces:R:3 cutoff=-1.0 nneightol=1.2 vacancies=0 relax_radial_0=0.13 relax_symm_break_0=0.01 bulk_struct_test=bulk_Si_diamond supercell_a1_in_bulk_lattice_coords="2 2 -2" n_minim_iter=4 energy=-10276.59835126159 stress="0.00033543347004151157 2.5236025147583938e-06 -0.00011061531445836008 2.5236025147583938e-06 0.0003450184913786611 -0.00022142079979125891 -0.00011061531445836008 -0.00022142079979125891 0.00034822436428150725" free_energy=-10276.59835126159 pbc="T T T"
Si       2.66614369       2.66639137       0.01725928       0.03379760       0.03435934      -0.00431348
Si       2.66679211       0.01697877       2.66729752       0.03480803      -0.00640716       0.03593251
Si       0.01671106       2.66761187       2.66786965      -0.00842806       0.03619519       0.03675582
Si       1.21494100       1.21696735       1.21919265      -0.04189915      -0.04168702      -0.04129443
Si       4.06183074       4.06175817       1.35353998      -0.00522045      -0.00503003      -0.03212736
Si       4.06190474       1.35377085       4.06175734      -0.00586283      -0.02971057      -0.00537294
Si       1.35399659       4.06187347       4.06179850      -0.02734516      -0.00642795      -0.00612897
Si       0.00022415       0.00011246       5.43615346      -0.00133780      -0.00066675      -0.00007548
Si       2.71594303       2.71592991       5.43405134       0.00052022       0.00061539       0.01496677
Si       2.66287138      -0.01802079       8.20891530       0.03469504       0.00368987      -0.03583808
Si      -0.01873460       2.65977626       8.21225811       0.00282130       0.03586501      -0.03644665
Si       1.35912369       1.35962011       6.80950666      -0.02062466      -0.02142863       0.00563866
Si       4.07835181       4.07841752       6.79380568      -0.02932815      -0.03117987       0.03301303
Si       4.06325477       1.35880056       9.51295354      -0.00426850      -0.02103552       0.02208109
Si       1.35870065       4.06302435       9.51255700      -0.02035073      -0.00501976       0.02220061
Si       0.00022408       5.43655711       0.00000026      -0.00133800       0.00086844       0.00000907
Si       2.66355704       8.20796123      -0.01773619       0.03582234      -0.03754460       0.00583103
Si       2.71597825       5.43397446       2.71595280       0.00055644       0.01439251       0.00070298
Si      -0.01911493       8.21465081       2.65737282       0.00396772      -0.03876330       0.03816436
Si       1.35906548       6.80970113       1.36003967      -0.02018327       0.00395493      -0.02175907
Si       4.06327339       9.51292743       1.35881533      -0.00217422       0.02247766      -0.02131910
Si       4.07832392       6.79375836       4.07846053      -0.02803221       0.03354905      -0.03172780
Si       1.35863097       9.51213747       4.06282548      -0.01987956       0.02261487      -0.00349463
Si       0.00016631       5.43727818       5.43617924      -0.00779736       0.00370230      -0.00017762
Si       2.71590246       8.15642282       5.43828799       0.00053205      -0.00062128      -0.01240166
Si       2.71586580       5.43821589       8.15644964       0.00049151      -0.01295297      -0.00059880
Si       0.01719914       8.20681594       8.20708447      -0.00985208      -0.03919701      -0.03862357
Si       1.35399499       6.81194308       6.81187042      -0.02662347       0.00762798       0.00790369
Si       4.06043380       9.51898592       6.81199803      -0.00641137       0.03390051       0.00617698
Si       4.06050828       6.81199582       9.51875178      -0.00686683       0.00635559       0.03142337
Si       1.20456287       9.66122401       9.66359566      -0.03828198       0.03686928       0.03752007
Si       5.43696743       0.00011232       0.00000026       0.00173887      -0.00066717       0.00000907
Si       8.21034377       2.66114248      -0.01817064      -0.03993961       0.03817172       0.00713469
Si       8.21369192      -0.01883561       2.65805200      -0.04055507       0.00614682       0.03934649
Si       5.43390553       2.71599060       2.71597840       0.01371480       0.00073001       0.00078227
Si       6.80990986       1.35949253       1.35997012       0.00211806      -0.02050876      -0.02127946
Si       9.51250041       4.06305281       1.35871193       0.02305721      -0.00082184      -0.02075728
Si       9.51210711       1.35862747       4.06283491       0.02307280      -0.02000129      -0.00138736
Si       6.79370444       4.07836513       4.07843598       0.03414124      -0.02865848      -0.03050316
Si       5.43841096       0.00008345       5.43617933       0.00742970      -0.00390206      -0.00017961
Si       8.15648313       2.71583396       5.43830782      -0.00060399       0.00071323      -0.00950455
Si       8.20977144       0.01790110       8.21031965      -0.04076734      -0.00913767      -0.03958630
Si       5.43818096       2.71576794       8.15653432      -0.01066339       0.00057841      -0.00059291
Si       6.81341832       1.35376147       6.81328037       0.00845737      -0.02835247       0.00885624
Si       9.51922742       4.05895330       6.81340597       0.03581811      -0.00774956       0.00770545
Si       9.66926883       1.19607758       9.67410621       0.03201096      -0.03418761       0.03364056
Si       6.81342873       4.05906812       9.51875902       0.00794655      -0.00839028       0.03079038
Si       5.43841118       5.43727864       0.00002065       0.00743800       0.00371850       0.00007412
Si       8.21308460       8.21336433       0.01856182      -0.04150401      -0.04089587      -0.00820717
Si       8.15657169       5.43825267       2.71573291      -0.00064185      -0.00697879       0.00079611
Si       5.43819785       8.15659594       2.71570366      -0.00758497      -0.00064944       0.00069959
Si       6.81483859       6.81477329       1.35352048       0.00977046       0.00989388      -0.03023982
Si       9.67991808       9.68238534       1.18764949       0.02776717       0.02873836      -0.02953373
Si       9.51923566       6.81482097       4.05753576       0.03529700       0.00940317      -0.00942507
Si       6.81484717       9.51900206       4.05757474       0.00945920       0.03274402      -0.00960464
Si       5.43616103       5.43615380       5.43614648      -0.00032439      -0.00016057      -0.00006329
Si       8.15655237       8.15654749       5.43399327      -0.00078581      -0.00088951       0.00626135
Si       8.15646484       5.43393344       8.15645040      -0.00074106       0.00876165      -0.00086305
Si       5.43388435       8.15637887       8.15636942       0.01097993      -0.00083609      -0.00085193
Si       6.79372674       6.79380517       6.79388024       0.03298816       0.03117087       0.02933679
Si       9.51261556       9.51314590       6.80947311       0.02247751       0.02133536      -0.00066203
Si       9.51221107       6.80968736       9.51323026       0.02251888      -0.00026309       0.02049262
Si       6.80990587       9.51231099       9.51279978       0.00000311       0.02157906       0.02069522
63
Lattice="10.87229329344769 0.0 0.0 0.0 10.87229329344769 0.0 0.0 0.0 10.87229329344769" Properties=species:S:1:pos:R:3:forces:R:3 cutoff=-1.0 nneightol=1.2 vacancies=0 relax_radial_0=0.13 relax_symm_break_0=0.01 bulk_struct_test=bulk_Si_diamond supercell_a1_in_bulk_lattice_coords="2 2 -2" n_minim_iter=5 energy=-10276.60017435286 stress="0.00041211433196027686 2.7970248012982053e-06 -0.00010069862560152817 2.7970248012982053e-06 0.0004223956812462305 -0.0002016297475773779 -0.00010069862560152817 -0.0002016297475773779 0.0004258291597309664" free_energy=-10276.60017435286 pbc="T T T"
Si       2.66533783       2.66563252       0.01649473       0.03076861       0.03019092       0.01349567
Si       2.66610746       0.01599721       2.66670934       0.03260545       0.01210768       0.03157705
Si       0.01552442       2.66705678       2.66736373       0.01090998       0.03395199       0.03350417
Si       1.21129410       1.21362508       1.21618557      -0.02972013      -0.03136560      -0.03272059
Si       4.06226252       4.06220824       1.35151241      -0.01305106      -0.01283987      -0.01076858