LAMMPS (27 Jun 2024 - Development - patch_17Apr2024-1524-g5a286ff933-modified)
  using 1 OpenMP thread(s) per MPI task
units metal
atom_style atomic
atom_modify map array sort 0 0
boundary p p p
box tilt large

The 'box' command has been removed and will be ignored

region cell prism    0 4.000810167953484 0 3.464803241166805 0 3.2666478230749014     2.0004050839767427 2.0004050839767427 1.1549344137222681     units box
create_box 1 cell
Created triclinic box = (0 0 0) to (4.0008102 3.4648032 3.2666478) with tilt (2.0004051 2.0004051 1.1549344)
WARNING: Triclinic box skew is large. LAMMPS will run inefficiently. (src/domain.cpp:221)
  1 by 1 by 1 MPI processor grid
echo none
Created 2 atoms
  using lattice units in triclinic box = (0 0 0) to (4.0008102 3.4648032 3.2666478) with tilt (2.0004051 2.0004051 1.1549344)
  create_atoms CPU = 0.001 seconds
Setting atom values ...
  1 settings made for type
Setting atom values ...
  1 settings made for type
pair_style hybrid/overlay pace table spline 5000
ACE version: 2023.11.25
Recursive evaluator is used
pair_coeff * * pace /home/eng/phrffk/testing-framework/example_models/Si/models/Si_jl_ACE/0ce218cb3e.yace Si
Loading /home/eng/phrffk/testing-framework/example_models/Si/models/Si_jl_ACE/0ce218cb3e.yace
Total number of basis functions
	Si: 32 (r=1) 45284 (r>1)
Mapping LAMMPS atom type #1(Si) -> ACE species type #0
pair_coeff 1 1 table /home/eng/phrffk/testing-framework/example_models/Si/models/Si_jl_ACE/0ce218cb3e_pairpot.table Si_Si
Reading pair table potential file /home/eng/phrffk/testing-framework/example_models/Si/models/Si_jl_ACE/0ce218cb3e_pairpot.table with DATE: none
WARNING: 1 of 6000 force values in table Si_Si are inconsistent with -dE/dr.
WARNING:  Should only be flagged at inflection points (src/pair_table.cpp:473)
mass 1 28.084999992775294685998233035207
variable pxx equal pxx
variable pyy equal pyy
variable pzz equal pzz
variable pxy equal pxy
variable pxz equal pxz
variable pyz equal pyz
thermo_style custom pe pxx emol ecoul
variable fx atom fx
variable fy atom fy
variable fz atom fz
variable pe equal pe
neigh_modify delay 0 every 1 check yes
echo none
run 0
WARNING: No fixes with time integration, atoms won't move (src/verlet.cpp:60)
Neighbor list info ...
  update: every = 1 steps, delay = 0 steps, check = yes
  max neighbors/atom: 2000, page size: 100000
  master list distance cutoff = 8
  ghost atom cutoff = 8
  binsize = 4, bins = 3 2 1
  2 neighbor lists, perpetual/occasional/extra = 2 0 0
  (1) pair pace, perpetual
      attributes: full, newton on
      pair build: full/bin/atomonly
      stencil: full/bin/3d
      bin: standard
  (2) pair table, perpetual, half/full from (1)
      attributes: half, newton on
      pair build: halffull/newton/tri
      stencil: none
      bin: none
Per MPI rank memory allocation (min/avg/max) = 3.622 | 3.622 | 3.622 Mbytes
    PotEng          Pxx           E_mol          E_coul    
-326.23947     -74103.003      0              0            
Loop time of 1.207e-06 on 1 procs for 0 steps with 2 atoms

165.7% CPU use with 1 MPI tasks x 1 OpenMP threads

MPI task timing breakdown:
Section |  min time  |  avg time  |  max time  |%varavg| %total
---------------------------------------------------------------
Pair    | 0          | 0          | 0          |   0.0 |  0.00
Neigh   | 0          | 0          | 0          |   0.0 |  0.00
Comm    | 0          | 0          | 0          |   0.0 |  0.00
Output  | 0          | 0          | 0          |   0.0 |  0.00
Modify  | 0          | 0          | 0          |   0.0 |  0.00
Other   |            | 1.207e-06  |            |       |100.00

Nlocal:              2 ave           2 max           2 min
Histogram: 1 0 0 0 0 0 0 0 0 0
Nghost:            430 ave         430 max         430 min
Histogram: 1 0 0 0 0 0 0 0 0 0
Neighs:             86 ave          86 max          86 min
Histogram: 1 0 0 0 0 0 0 0 0 0
FullNghs:          172 ave         172 max         172 min
Histogram: 1 0 0 0 0 0 0 0 0 0

Total # of neighbors = 172
Ave neighs/atom = 86
Neighbor list builds = 0
Dangerous builds = 0
set atom * x 0.0 y 0.0 z 0.0
Setting atom values ...
  2 settings made for x
  2 settings made for y
  2 settings made for z
change_box all     x final 0 3.843936157422942 y final 0 3.3289463628538067 z final 0 3.138560729840294      xy final 1.9219680787114708 xz final 1.9219680787114708 yz final 1.1096487876179357 units box
Changing box ...
WARNING: Triclinic box skew is large. LAMMPS will run inefficiently. (src/domain.cpp:221)
  triclinic box = (0 0 0) to (3.8439362 3.4648032 3.2666478) with tilt (2.0004051 2.0004051 1.1549344)
WARNING: Triclinic box skew is large. LAMMPS will run inefficiently. (src/domain.cpp:221)
  triclinic box = (0 0 0) to (3.8439362 3.3289464 3.2666478) with tilt (2.0004051 2.0004051 1.1549344)
WARNING: Triclinic box skew is large. LAMMPS will run inefficiently. (src/domain.cpp:221)
  triclinic box = (0 0 0) to (3.8439362 3.3289464 3.1385607) with tilt (2.0004051 2.0004051 1.1549344)
WARNING: Triclinic box skew is large. LAMMPS will run inefficiently. (src/domain.cpp:221)
  triclinic box = (0 0 0) to (3.8439362 3.3289464 3.1385607) with tilt (1.9219681 2.0004051 1.1549344)
WARNING: Triclinic box skew is large. LAMMPS will run inefficiently. (src/domain.cpp:221)
  triclinic box = (0 0 0) to (3.8439362 3.3289464 3.1385607) with tilt (1.9219681 1.9219681 1.1549344)
WARNING: Triclinic box skew is large. LAMMPS will run inefficiently. (src/domain.cpp:221)
  triclinic box = (0 0 0) to (3.8439362 3.3289464 3.1385607) with tilt (1.9219681 1.9219681 1.1096488)
echo none
run 0
WARNING: No fixes with time integration, atoms won't move (src/verlet.cpp:60)
Per MPI rank memory allocation (min/avg/max) = 3.622 | 3.622 | 3.622 Mbytes
    PotEng          Pxx           E_mol          E_coul    
-326.35342      12311.508      0              0            
Loop time of 8.36e-07 on 1 procs for 0 steps with 2 atoms

239.2% CPU use with 1 MPI tasks x 1 OpenMP threads

MPI task timing breakdown:
Section |  min time  |  avg time  |  max time  |%varavg| %total
---------------------------------------------------------------
Pair    | 0          | 0          | 0          |   0.0 |  0.00
Neigh   | 0          | 0          | 0          |   0.0 |  0.00
Comm    | 0          | 0          | 0          |   0.0 |  0.00
Output  | 0          | 0          | 0          |   0.0 |  0.00
Modify  | 0          | 0          | 0          |   0.0 |  0.00
Other   |            | 8.36e-07   |            |       |100.00

Nlocal:              2 ave           2 max           2 min
Histogram: 1 0 0 0 0 0 0 0 0 0
Nghost:            430 ave         430 max         430 min
Histogram: 1 0 0 0 0 0 0 0 0 0
Neighs:             98 ave          98 max          98 min
Histogram: 1 0 0 0 0 0 0 0 0 0
FullNghs:          196 ave         196 max         196 min
Histogram: 1 0 0 0 0 0 0 0 0 0

Total # of neighbors = 196
Ave neighs/atom = 98
Neighbor list builds = 0
Dangerous builds = 0
set atom * x 0.0 y 0.0 z 0.0
Setting atom values ...
  2 settings made for x
  2 settings made for y
  2 settings made for z
change_box all     x final 0 3.8116326456530008 y final 0 3.3009707010295886 z final 0 3.112185022928178      xy final 1.9058163228265006 xz final 1.9058163228265004 yz final 1.1003235670098628 units box
Changing box ...
WARNING: Triclinic box skew is large. LAMMPS will run inefficiently. (src/domain.cpp:221)
  triclinic box = (0 0 0) to (3.8116326 3.3289464 3.1385607) with tilt (1.9219681 1.9219681 1.1096488)
WARNING: Triclinic box skew is large. LAMMPS will run inefficiently. (src/domain.cpp:221)
  triclinic box = (0 0 0) to (3.8116326 3.3009707 3.1385607) with tilt (1.9219681 1.9219681 1.1096488)
WARNING: Triclinic box skew is large. LAMMPS will run inefficiently. (src/domain.cpp:221)
  triclinic box = (0 0 0) to (3.8116326 3.3009707 3.112185) with tilt (1.9219681 1.9219681 1.1096488)
WARNING: Triclinic box skew is large. LAMMPS will run inefficiently. (src/domain.cpp:221)
  triclinic box = (0 0 0) to (3.8116326 3.3009707 3.112185) with tilt (1.9058163 1.9219681 1.1096488)
WARNING: Triclinic box skew is large. LAMMPS will run inefficiently. (src/domain.cpp:221)
  triclinic box = (0 0 0) to (3.8116326 3.3009707 3.112185) with tilt (1.9058163 1.9058163 1.1096488)
WARNING: Triclinic box skew is large. LAMMPS will run inefficiently. (src/domain.cpp:221)
  triclinic box = (0 0 0) to (3.8116326 3.3009707 3.112185) with tilt (1.9058163 1.9058163 1.1003236)
echo none
run 0
WARNING: No fixes with time integration, atoms won't move (src/verlet.cpp:60)
Per MPI rank memory allocation (min/avg/max) = 3.622 | 3.622 | 3.622 Mbytes
    PotEng          Pxx           E_mol          E_coul    
-326.338        37466.08       0              0            
Loop time of 8.82e-07 on 1 procs for 0 steps with 2 atoms

226.8% CPU use with 1 MPI tasks x 1 OpenMP threads

MPI task timing breakdown:
Section |  min time  |  avg time  |  max time  |%varavg| %total
---------------------------------------------------------------
Pair    | 0          | 0          | 0          |   0.0 |  0.00
Neigh   | 0          | 0          | 0          |   0.0 |  0.00
Comm    | 0          | 0          | 0          |   0.0 |  0.00
Output  | 0          | 0          | 0          |   0.0 |  0.00
Modify  | 0          | 0          | 0          |   0.0 |  0.00
Other   |            | 8.82e-07   |            |       |100.00

Nlocal:              2 ave           2 max           2 min
Histogram: 1 0 0 0 0 0 0 0 0 0
Nghost:            430 ave         430 max         430 min
Histogram: 1 0 0 0 0 0 0 0 0 0
Neighs:            122 ave         122 max         122 min
Histogram: 1 0 0 0 0 0 0 0 0 0
FullNghs:          244 ave         244 max         244 min
Histogram: 1 0 0 0 0 0 0 0 0 0

Total # of neighbors = 244
Ave neighs/atom = 122
Neighbor list builds = 0
Dangerous builds = 0
set atom * x 0.0 y 0.0 z 0.0
Setting atom values ...
  2 settings made for x
  2 settings made for y
  2 settings made for z
change_box all     x final 0 3.7787721083671526 y final 0 3.2725126409580376 z final 0 3.085354506586835      xy final 1.889386054183576 xz final 1.889386054183576 yz final 1.0908375469860125 units box
Changing box ...
WARNING: Triclinic box skew is large. LAMMPS will run inefficiently. (src/domain.cpp:221)
  triclinic box = (0 0 0) to (3.7787721 3.3009707 3.112185) with tilt (1.9058163 1.9058163 1.1003236)
WARNING: Triclinic box skew is large. LAMMPS will run inefficiently. (src/domain.cpp:221)
  triclinic box = (0 0 0) to (3.7787721 3.2725126 3.112185) with tilt (1.9058163 1.9058163 1.1003236)
WARNING: Triclinic box skew is large. LAMMPS will run inefficiently. (src/domain.cpp:221)
  triclinic box = (0 0 0) to (3.7787721 3.2725126 3.0853545) with tilt (1.9058163 1.9058163 1.1003236)
WARNING: Triclinic box skew is large. LAMMPS will run inefficiently. (src/domain.cpp:221)
  triclinic box = (0 0 0) to (3.7787721 3.2725126 3.0853545) with tilt (1.8893861 1.9058163 1.1003236)
WARNING: Triclinic box skew is large. LAMMPS will run inefficiently. (src/domain.cpp:221)
  triclinic box = (0 0 0) to (3.7787721 3.2725126 3.0853545) with tilt (1.8893861 1.8893861 1.1003236)
WARNING: Triclinic box skew is large. LAMMPS will run inefficiently. (src/domain.cpp:221)
  triclinic box = (0 0 0) to (3.7787721 3.2725126 3.0853545) with tilt (1.8893861 1.8893861 1.0908375)
echo none
run 0
WARNING: No fixes with time integration, atoms won't move (src/verlet.cpp:60)
Per MPI rank memory allocation (min/avg/max) = 3.622 | 3.622 | 3.622 Mbytes
    PotEng          Pxx           E_mol          E_coul    
-326.30572      66176.457      0              0            
Loop time of 6.94e-07 on 1 procs for 0 steps with 2 atoms

144.1% CPU use with 1 MPI tasks x 1 OpenMP threads

MPI task timing breakdown:
Section |  min time  |  avg time  |  max time  |%varavg| %total
---------------------------------------------------------------
Pair    | 0          | 0          | 0          |   0.0 |  0.00
Neigh   | 0          | 0          | 0          |   0.0 |  0.00
Comm    | 0          | 0          | 0          |   0.0 |  0.00
Output  | 0          | 0          | 0          |   0.0 |  0.00
Modify  | 0          | 0          | 0          |   0.0 |  0.00
Other   |            | 6.94e-07   |            |       |100.00

Nlocal:              2 ave           2 max           2 min
Histogram: 1 0 0 0 0 0 0 0 0 0
Nghost:            430 ave         430 max         430 min
Histogram: 1 0 0 0 0 0 0 0 0 0
Neighs:            122 ave         122 max         122 min
Histogram: 1 0 0 0 0 0 0 0 0 0
FullNghs:          244 ave         244 max         244 min
Histogram: 1 0 0 0 0 0 0 0 0 0

Total # of neighbors = 244
Ave neighs/atom = 122
Neighbor list builds = 0
Dangerous builds = 0
set atom * x 0.0 y 0.0 z 0.0
Setting atom values ...
  2 settings made for x
  2 settings made for y
  2 settings made for z
change_box all     x final 0 3.7453298933796235 y final 0 3.2435508332200165 z final 0 3.0580490523908677      xy final 1.8726649466898115 xz final 1.8726649466898115 yz final 1.081183611073339 units box
Changing box ...
WARNING: Triclinic box skew is large. LAMMPS will run inefficiently. (src/domain.cpp:221)
  triclinic box = (0 0 0) to (3.7453299 3.2725126 3.0853545) with tilt (1.8893861 1.8893861 1.0908375)
WARNING: Triclinic box skew is large. LAMMPS will run inefficiently. (src/domain.cpp:221)
  triclinic box = (0 0 0) to (3.7453299 3.2435508 3.0853545) with tilt (1.8893861 1.8893861 1.0908375)
WARNING: Triclinic box skew is large. LAMMPS will run inefficiently. (src/domain.cpp:221)
  triclinic box = (0 0 0) to (3.7453299 3.2435508 3.0580491) with tilt (1.8893861 1.8893861 1.0908375)
WARNING: Triclinic box skew is large. LAMMPS will run inefficiently. (src/domain.cpp:221)
  triclinic box = (0 0 0) to (3.7453299 3.2435508 3.0580491) with tilt (1.8726649 1.8893861 1.0908375)
WARNING: Triclinic box skew is large. LAMMPS will run inefficiently. (src/domain.cpp:221)
  triclinic box = (0 0 0) to (3.7453299 3.2435508 3.0580491) with tilt (1.8726649 1.8726649 1.0908375)
WARNING: Triclinic box skew is large. LAMMPS will run inefficiently. (src/domain.cpp:221)
  triclinic box = (0 0 0) to (3.7453299 3.2435508 3.0580491) with tilt (1.8726649 1.8726649 1.0811836)
echo none
run 0
WARNING: No fixes with time integration, atoms won't move (src/verlet.cpp:60)
Per MPI rank memory allocation (min/avg/max) = 3.622 | 3.622 | 3.622 Mbytes
    PotEng          Pxx           E_mol          E_coul    
-326.25423      98842.038      0              0            
Loop time of 6.53e-07 on 1 procs for 0 steps with 2 atoms

153.1% CPU use with 1 MPI tasks x 1 OpenMP threads

MPI task timing breakdown:
Section |  min time  |  avg time  |  max time  |%varavg| %total
---------------------------------------------------------------
Pair    | 0          | 0          | 0          |   0.0 |  0.00
Neigh   | 0          | 0          | 0          |   0.0 |  0.00
Comm    | 0          | 0          | 0          |   0.0 |  0.00
Output  | 0          | 0          | 0          |   0.0 |  0.00
Modify  | 0          | 0          | 0          |   0.0 |  0.00
Other   |            | 6.53e-07   |            |       |100.00

Nlocal:              2 ave           2 max           2 min
Histogram: 1 0 0 0 0 0 0 0 0 0
Nghost:            430 ave         430 max         430 min
Histogram: 1 0 0 0 0 0 0 0 0 0
Neighs:            122 ave         122 max         122 min
Histogram: 1 0 0 0 0 0 0 0 0 0
FullNghs:          244 ave         244 max         244 min
Histogram: 1 0 0 0 0 0 0 0 0 0

Total # of neighbors = 244
Ave neighs/atom = 122
Neighbor list builds = 0
Dangerous builds = 0
set atom * x 0.0 y 0.0 z 0.0
Setting atom values ...
  2 settings made for x
  2 settings made for y
  2 settings made for z
change_box all     x final 0 3.7112795550936055 y final 0 3.214062375256871 z final 0 3.030247067600901      xy final 1.8556397775468025 xz final 1.8556397775468025 yz final 1.0713541250856236 units box
Changing box ...
WARNING: Triclinic box skew is large. LAMMPS will run inefficiently. (src/domain.cpp:221)
  triclinic box = (0 0 0) to (3.7112796 3.2435508 3.0580491) with tilt (1.8726649 1.8726649 1.0811836)
WARNING: Triclinic box skew is large. LAMMPS will run inefficiently. (src/domain.cpp:221)
  triclinic box = (0 0 0) to (3.7112796 3.2140624 3.0580491) with tilt (1.8726649 1.8726649 1.0811836)
WARNING: Triclinic box skew is large. LAMMPS will run inefficiently. (src/domain.cpp:221)
  triclinic box = (0 0 0) to (3.7112796 3.2140624 3.0302471) with tilt (1.8726649 1.8726649 1.0811836)
WARNING: Triclinic box skew is large. LAMMPS will run inefficiently. (src/domain.cpp:221)
  triclinic box = (0 0 0) to (3.7112796 3.2140624 3.0302471) with tilt (1.8556398 1.8726649 1.0811836)
WARNING: Triclinic box skew is large. LAMMPS will run inefficiently. (src/domain.cpp:221)
  triclinic box = (0 0 0) to (3.7112796 3.2140624 3.0302471) with tilt (1.8556398 1.8556398 1.0811836)
WARNING: Triclinic box skew is large. LAMMPS will run inefficiently. (src/domain.cpp:221)
  triclinic box = (0 0 0) to (3.7112796 3.2140624 3.0302471) with tilt (1.8556398 1.8556398 1.0713541)
echo none
run 0
WARNING: No fixes with time integration, atoms won't move (src/verlet.cpp:60)
Per MPI rank memory allocation (min/avg/max) = 3.622 | 3.622 | 3.622 Mbytes
    PotEng          Pxx           E_mol          E_coul    
-326.18089      136032.12      0              0            
Loop time of 6.41e-07 on 1 procs for 0 steps with 2 atoms

156.0% CPU use with 1 MPI tasks x 1 OpenMP threads

MPI task timing breakdown:
Section |  min time  |  avg time  |  max time  |%varavg| %total
---------------------------------------------------------------
Pair    | 0          | 0          | 0          |   0.0 |  0.00
Neigh   | 0          | 0          | 0          |   0.0 |  0.00
Comm    | 0          | 0          | 0          |   0.0 |  0.00
Output  | 0          | 0          | 0          |   0.0 |  0.00
Modify  | 0          | 0          | 0          |   0.0 |  0.00
Other   |            | 6.41e-07   |            |       |100.00

Nlocal:              2 ave           2 max           2 min
Histogram: 1 0 0 0 0 0 0 0 0 0
Nghost:            430 ave         430 max         430 min
Histogram: 1 0 0 0 0 0 0 0 0 0
Neighs:            122 ave         122 max         122 min
Histogram: 1 0 0 0 0 0 0 0 0 0
FullNghs:          244 ave         244 max         244 min
Histogram: 1 0 0 0 0 0 0 0 0 0

Total # of neighbors = 244
Ave neighs/atom = 122
Neighbor list builds = 0
Dangerous builds = 0
set atom * x 0.0 y 0.0 z 0.0
Setting atom values ...
  2 settings made for x
  2 settings made for y
  2 settings made for z
change_box all     x final 0 3.676592670060311 y final 0 3.184022651639888 z final 0 3.0019253445681837      xy final 1.8382963350301553 xz final 1.8382963350301553 yz final 1.0613408838799627 units box
Changing box ...
WARNING: Triclinic box skew is large. LAMMPS will run inefficiently. (src/domain.cpp:221)
  triclinic box = (0 0 0) to (3.6765927 3.2140624 3.0302471) with tilt (1.8556398 1.8556398 1.0713541)
WARNING: Triclinic box skew is large. LAMMPS will run inefficiently. (src/domain.cpp:221)
  triclinic box = (0 0 0) to (3.6765927 3.1840227 3.0302471) with tilt (1.8556398 1.8556398 1.0713541)
WARNING: Triclinic box skew is large. LAMMPS will run inefficiently. (src/domain.cpp:221)
  triclinic box = (0 0 0) to (3.6765927 3.1840227 3.0019253) with tilt (1.8556398 1.8556398 1.0713541)
WARNING: Triclinic box skew is large. LAMMPS will run inefficiently. (src/domain.cpp:221)
  triclinic box = (0 0 0) to (3.6765927 3.1840227 3.0019253) with tilt (1.8382963 1.8556398 1.0713541)
WARNING: Triclinic box skew is large. LAMMPS will run inefficiently. (src/domain.cpp:221)
  triclinic box = (0 0 0) to (3.6765927 3.1840227 3.0019253) with tilt (1.8382963 1.8382963 1.0713541)
WARNING: Triclinic box skew is large. LAMMPS will run inefficiently. (src/domain.cpp:221)
  triclinic box = (0 0 0) to (3.6765927 3.1840227 3.0019253) with tilt (1.8382963 1.8382963 1.0613409)
echo none
run 0
WARNING: No fixes with time integration, atoms won't move (src/verlet.cpp:60)
Per MPI rank memory allocation (min/avg/max) = 3.622 | 3.622 | 3.622 Mbytes
    PotEng          Pxx           E_mol          E_coul    
-326.08265      178436.39      0              0            
Loop time of 6.45e-07 on 1 procs for 0 steps with 2 atoms

155.0% CPU use with 1 MPI tasks x 1 OpenMP threads

MPI task timing breakdown:
Section |  min time  |  avg time  |  max time  |%varavg| %total
---------------------------------------------------------------
Pair    | 0          | 0          | 0          |   0.0 |  0.00
Neigh   | 0          | 0          | 0          |   0.0 |  0.00
Comm    | 0          | 0          | 0          |   0.0 |  0.00
Output  | 0          | 0          | 0          |   0.0 |  0.00
Modify  | 0          | 0          | 0          |   0.0 |  0.00
Other   |            | 6.45e-07   |            |       |100.00

Nlocal:              2 ave           2 max           2 min
Histogram: 1 0 0 0 0 0 0 0 0 0
Nghost:            430 ave         430 max         430 min
Histogram: 1 0 0 0 0 0 0 0 0 0
Neighs:            122 ave         122 max         122 min
Histogram: 1 0 0 0 0 0 0 0 0 0
FullNghs:          244 ave         244 max         244 min
Histogram: 1 0 0 0 0 0 0 0 0 0

Total # of neighbors = 244
Ave neighs/atom = 122
Neighbor list builds = 0
Dangerous builds = 0
set atom * x 0.0 y 0.0 z 0.0
Setting atom values ...
  2 settings made for x
  2 settings made for y
  2 settings made for z
change_box all     x final 0 3.6412386276972093 y final 0 3.1534051528269713 z final 0 2.973058889856737      xy final 1.8206193138486049 xz final 1.8206193138486046 yz final 1.0511350509423238 units box
Changing box ...
WARNING: Triclinic box skew is large. LAMMPS will run inefficiently. (src/domain.cpp:221)
  triclinic box = (0 0 0) to (3.6412386 3.1840227 3.0019253) with tilt (1.8382963 1.8382963 1.0613409)
WARNING: Triclinic box skew is large. LAMMPS will run inefficiently. (src/domain.cpp:221)
  triclinic box = (0 0 0) to (3.6412386 3.1534052 3.0019253) with tilt (1.8382963 1.8382963 1.0613409)
WARNING: Triclinic box skew is large. LAMMPS will run inefficiently. (src/domain.cpp:221)
  triclinic box = (0 0 0) to (3.6412386 3.1534052 2.9730589) with tilt (1.8382963 1.8382963 1.0613409)
WARNING: Triclinic box skew is large. LAMMPS will run inefficiently. (src/domain.cpp:221)
  triclinic box = (0 0 0) to (3.6412386 3.1534052 2.9730589) with tilt (1.8206193 1.8382963 1.0613409)
WARNING: Triclinic box skew is large. LAMMPS will run inefficiently. (src/domain.cpp:221)
  triclinic box = (0 0 0) to (3.6412386 3.1534052 2.9730589) with tilt (1.8206193 1.8206193 1.0613409)
WARNING: Triclinic box skew is large. LAMMPS will run inefficiently. (src/domain.cpp:221)
  triclinic box = (0 0 0) to (3.6412386 3.1534052 2.9730589) with tilt (1.8206193 1.8206193 1.0511351)
echo none
run 0
WARNING: No fixes with time integration, atoms won't move (src/verlet.cpp:60)
Per MPI rank memory allocation (min/avg/max) = 3.622 | 3.622 | 3.622 Mbytes
    PotEng          Pxx           E_mol          E_coul    
-325.95601      226780.46      0              0            
Loop time of 6.71e-07 on 1 procs for 0 steps with 2 atoms

149.0% CPU use with 1 MPI tasks x 1 OpenMP threads

MPI task timing breakdown:
Section |  min time  |  avg time  |  max time  |%varavg| %total
---------------------------------------------------------------
Pair    | 0          | 0          | 0          |   0.0 |  0.00
Neigh   | 0          | 0          | 0          |   0.0 |  0.00
Comm    | 0          | 0          | 0          |   0.0 |  0.00
Output  | 0          | 0          | 0          |   0.0 |  0.00
Modify  | 0          | 0          | 0          |   0.0 |  0.00
Other   |            | 6.71e-07   |            |       |100.00

Nlocal:              2 ave           2 max           2 min
Histogram: 1 0 0 0 0 0 0 0 0 0
Nghost:            430 ave         430 max         430 min
Histogram: 1 0 0 0 0 0 0 0 0 0
Neighs:            122 ave         122 max         122 min
Histogram: 1 0 0 0 0 0 0 0 0 0
FullNghs:          244 ave         244 max         244 min
Histogram: 1 0 0 0 0 0 0 0 0 0

Total # of neighbors = 244
Ave neighs/atom = 122
Neighbor list builds = 0
Dangerous builds = 0
set atom * x 0.0 y 0.0 z 0.0
Setting atom values ...
  2 settings made for x
  2 settings made for y
  2 settings made for z
change_box all     x final 0 3.60518439198182 y final 0 3.122181268783412 z final 0 2.9436207296671584      xy final 1.8025921959909101 xz final 1.80259219599091 yz final 1.0407270895944705 units box
Changing box ...
WARNING: Triclinic box skew is large. LAMMPS will run inefficiently. (src/domain.cpp:221)
  triclinic box = (0 0 0) to (3.6051844 3.1534052 2.9730589) with tilt (1.8206193 1.8206193 1.0511351)
WARNING: Triclinic box skew is large. LAMMPS will run inefficiently. (src/domain.cpp:221)
  triclinic box = (0 0 0) to (3.6051844 3.1221813 2.9730589) with tilt (1.8206193 1.8206193 1.0511351)
WARNING: Triclinic box skew is large. LAMMPS will run inefficiently. (src/domain.cpp:221)
  triclinic box = (0 0 0) to (3.6051844 3.1221813 2.9436207) with tilt (1.8206193 1.8206193 1.0511351)
WARNING: Triclinic box skew is large. LAMMPS will run inefficiently. (src/domain.cpp:221)
  triclinic box = (0 0 0) to (3.6051844 3.1221813 2.9436207) with tilt (1.8025922 1.8206193 1.0511351)
WARNING: Triclinic box skew is large. LAMMPS will run inefficiently. (src/domain.cpp:221)
  triclinic box = (0 0 0) to (3.6051844 3.1221813 2.9436207) with tilt (1.8025922 1.8025922 1.0511351)
WARNING: Triclinic box skew is large. LAMMPS will run inefficiently. (src/domain.cpp:221)
  triclinic box = (0 0 0) to (3.6051844 3.1221813 2.9436207) with tilt (1.8025922 1.8025922 1.0407271)
echo none
run 0
WARNING: No fixes with time integration, atoms won't move (src/verlet.cpp:60)
Per MPI rank memory allocation (min/avg/max) = 3.622 | 3.622 | 3.622 Mbytes
    PotEng          Pxx           E_mol          E_coul    
-325.79702      281784.2       0              0            
Loop time of 6.44e-07 on 1 procs for 0 steps with 2 atoms

155.3% CPU use with 1 MPI tasks x 1 OpenMP threads

MPI task timing breakdown:
Section |  min time  |  avg time  |  max time  |%varavg| %total
---------------------------------------------------------------
Pair    | 0          | 0          | 0          |   0.0 |  0.00
Neigh   | 0          | 0          | 0          |   0.0 |  0.00
Comm    | 0          | 0          | 0          |   0.0 |  0.00
Output  | 0          | 0          | 0          |   0.0 |  0.00
Modify  | 0          | 0          | 0          |   0.0 |  0.00
Other   |            | 6.44e-07   |            |       |100.00

Nlocal:              2 ave           2 max           2 min
Histogram: 1 0 0 0 0 0 0 0 0 0
Nghost:            430 ave         430 max         430 min
Histogram: 1 0 0 0 0 0 0 0 0 0
Neighs:            122 ave         122 max         122 min
Histogram: 1 0 0 0 0 0 0 0 0 0
FullNghs:          244 ave         244 max         244 min
Histogram: 1 0 0 0 0 0 0 0 0 0

Total # of neighbors = 244
Ave neighs/atom = 122
Neighbor list builds = 0
Dangerous builds = 0
set atom * x 0.0 y 0.0 z 0.0
Setting atom values ...
  2 settings made for x
  2 settings made for y
  2 settings made for z
change_box all     x final 0 3.5683942290829487 y final 0 3.0903200531036212 z final 0 2.913581687448456      xy final 1.7841971145414741 xz final 1.7841971145414741 yz final 1.0301066843678737 units box
Changing box ...
WARNING: Triclinic box skew is large. LAMMPS will run inefficiently. (src/domain.cpp:221)
  triclinic box = (0 0 0) to (3.5683942 3.1221813 2.9436207) with tilt (1.8025922 1.8025922 1.0407271)
WARNING: Triclinic box skew is large. LAMMPS will run inefficiently. (src/domain.cpp:221)
  triclinic box = (0 0 0) to (3.5683942 3.0903201 2.9436207) with tilt (1.8025922 1.8025922 1.0407271)
WARNING: Triclinic box skew is large. LAMMPS will run inefficiently. (src/domain.cpp:221)
  triclinic box = (0 0 0) to (3.5683942 3.0903201 2.9135817) with tilt (1.8025922 1.8025922 1.0407271)
WARNING: Triclinic box skew is large. LAMMPS will run inefficiently. (src/domain.cpp:221)
  triclinic box = (0 0 0) to (3.5683942 3.0903201 2.9135817) with tilt (1.7841971 1.8025922 1.0407271)
WARNING: Triclinic box skew is large. LAMMPS will run inefficiently. (src/domain.cpp:221)
  triclinic box = (0 0 0) to (3.5683942 3.0903201 2.9135817) with tilt (1.7841971 1.7841971 1.0407271)
WARNING: Triclinic box skew is large. LAMMPS will run inefficiently. (src/domain.cpp:221)
  triclinic box = (0 0 0) to (3.5683942 3.0903201 2.9135817) with tilt (1.7841971 1.7841971 1.0301067)
echo none
run 0
WARNING: No fixes with time integration, atoms won't move (src/verlet.cpp:60)
Per MPI rank memory allocation (min/avg/max) = 3.622 | 3.622 | 3.622 Mbytes
    PotEng          Pxx           E_mol          E_coul    
-325.60126      344323.94      0              0            
Loop time of 6.45e-07 on 1 procs for 0 steps with 2 atoms

310.1% CPU use with 1 MPI tasks x 1 OpenMP threads

MPI task timing breakdown:
Section |  min time  |  avg time  |  max time  |%varavg| %total
---------------------------------------------------------------
Pair    | 0          | 0          | 0          |   0.0 |  0.00
Neigh   | 0          | 0          | 0          |   0.0 |  0.00
Comm    | 0          | 0          | 0          |   0.0 |  0.00
Output  | 0          | 0          | 0          |   0.0 |  0.00
Modify  | 0          | 0          | 0          |   0.0 |  0.00
Other   |            | 6.45e-07   |            |       |100.00

Nlocal:              2 ave           2 max           2 min
Histogram: 1 0 0 0 0 0 0 0 0 0
Nghost:            430 ave         430 max         430 min
Histogram: 1 0 0 0 0 0 0 0 0 0
Neighs:            146 ave         146 max         146 min
Histogram: 1 0 0 0 0 0 0 0 0 0
FullNghs:          292 ave         292 max         292 min
Histogram: 1 0 0 0 0 0 0 0 0 0

Total # of neighbors = 292
Ave neighs/atom = 146
Neighbor list builds = 0
Dangerous builds = 0
set atom * x 0.0 y 0.0 z 0.0
Setting atom values ...
  2 settings made for x
  2 settings made for y
  2 settings made for z
change_box all     x final 0 3.530829394829845 y final 0 3.0577879523514815 z final 0 2.88291012871768      xy final 1.7654146974149223 xz final 1.765414697414922 yz final 1.019262650783827 units box
Changing box ...
WARNING: Triclinic box skew is large. LAMMPS will run inefficiently. (src/domain.cpp:221)
  triclinic box = (0 0 0) to (3.5308294 3.0903201 2.9135817) with tilt (1.7841971 1.7841971 1.0301067)
WARNING: Triclinic box skew is large. LAMMPS will run inefficiently. (src/domain.cpp:221)
  triclinic box = (0 0 0) to (3.5308294 3.057788 2.9135817) with tilt (1.7841971 1.7841971 1.0301067)
WARNING: Triclinic box skew is large. LAMMPS will run inefficiently. (src/domain.cpp:221)
  triclinic box = (0 0 0) to (3.5308294 3.057788 2.8829101) with tilt (1.7841971 1.7841971 1.0301067)
WARNING: Triclinic box skew is large. LAMMPS will run inefficiently. (src/domain.cpp:221)
  triclinic box = (0 0 0) to (3.5308294 3.057788 2.8829101) with tilt (1.7654147 1.7841971 1.0301067)
WARNING: Triclinic box skew is large. LAMMPS will run inefficiently. (src/domain.cpp:221)
  triclinic box = (0 0 0) to (3.5308294 3.057788 2.8829101) with tilt (1.7654147 1.7654147 1.0301067)
WARNING: Triclinic box skew is large. LAMMPS will run inefficiently. (src/domain.cpp:221)
  triclinic box = (0 0 0) to (3.5308294 3.057788 2.8829101) with tilt (1.7654147 1.7654147 1.0192627)
echo none
run 0
WARNING: No fixes with time integration, atoms won't move (src/verlet.cpp:60)
Per MPI rank memory allocation (min/avg/max) = 3.623 | 3.623 | 3.623 Mbytes
    PotEng          Pxx           E_mol          E_coul    
-325.36356      416055.84      0              0            
Loop time of 6.21e-07 on 1 procs for 0 steps with 2 atoms

161.0% CPU use with 1 MPI tasks x 1 OpenMP threads

MPI task timing breakdown:
Section |  min time  |  avg time  |  max time  |%varavg| %total
---------------------------------------------------------------
Pair    | 0          | 0          | 0          |   0.0 |  0.00
Neigh   | 0          | 0          | 0          |   0.0 |  0.00
Comm    | 0          | 0          | 0          |   0.0 |  0.00
Output  | 0          | 0          | 0          |   0.0 |  0.00
Modify  | 0          | 0          | 0          |   0.0 |  0.00
Other   |            | 6.21e-07   |            |       |100.00

Nlocal:              2 ave           2 max           2 min
Histogram: 1 0 0 0 0 0 0 0 0 0
Nghost:            557 ave         557 max         557 min
Histogram: 1 0 0 0 0 0 0 0 0 0
Neighs:            146 ave         146 max         146 min
Histogram: 1 0 0 0 0 0 0 0 0 0
FullNghs:          292 ave         292 max         292 min
Histogram: 1 0 0 0 0 0 0 0 0 0

Total # of neighbors = 292
Ave neighs/atom = 146
Neighbor list builds = 0
Dangerous builds = 0
set atom * x 0.0 y 0.0 z 0.0
Setting atom values ...
  2 settings made for x
  2 settings made for y
  2 settings made for z
change_box all     x final 0 3.4924477745926366 y final 0 3.0245484941876524 z final 0 2.851571667023533      xy final 1.7462238872963183 xz final 1.7462238872963183 yz final 1.008182831395884 units box
Changing box ...
WARNING: Triclinic box skew is large. LAMMPS will run inefficiently. (src/domain.cpp:221)
  triclinic box = (0 0 0) to (3.4924478 3.057788 2.8829101) with tilt (1.7654147 1.7654147 1.0192627)
WARNING: Triclinic box skew is large. LAMMPS will run inefficiently. (src/domain.cpp:221)
  triclinic box = (0 0 0) to (3.4924478 3.0245485 2.8829101) with tilt (1.7654147 1.7654147 1.0192627)
WARNING: Triclinic box skew is large. LAMMPS will run inefficiently. (src/domain.cpp:221)
  triclinic box = (0 0 0) to (3.4924478 3.0245485 2.8515717) with tilt (1.7654147 1.7654147 1.0192627)
WARNING: Triclinic box skew is large. LAMMPS will run inefficiently. (src/domain.cpp:221)
  triclinic box = (0 0 0) to (3.4924478 3.0245485 2.8515717) with tilt (1.7462239 1.7654147 1.0192627)
WARNING: Triclinic box skew is large. LAMMPS will run inefficiently. (src/domain.cpp:221)
  triclinic box = (0 0 0) to (3.4924478 3.0245485 2.8515717) with tilt (1.7462239 1.7462239 1.0192627)
WARNING: Triclinic box skew is large. LAMMPS will run inefficiently. (src/domain.cpp:221)
  triclinic box = (0 0 0) to (3.4924478 3.0245485 2.8515717) with tilt (1.7462239 1.7462239 1.0081828)
echo none
run 0
WARNING: No fixes with time integration, atoms won't move (src/verlet.cpp:60)
Per MPI rank memory allocation (min/avg/max) = 3.623 | 3.623 | 3.623 Mbytes
    PotEng          Pxx           E_mol          E_coul    
-325.0771       500838.74      0              0            
Loop time of 6.29e-07 on 1 procs for 0 steps with 2 atoms

159.0% CPU use with 1 MPI tasks x 1 OpenMP threads

MPI task timing breakdown:
Section |  min time  |  avg time  |  max time  |%varavg| %total
---------------------------------------------------------------
Pair    | 0          | 0          | 0          |   0.0 |  0.00
Neigh   | 0          | 0          | 0          |   0.0 |  0.00
Comm    | 0          | 0          | 0          |   0.0 |  0.00
Output  | 0          | 0          | 0          |   0.0 |  0.00
Modify  | 0          | 0          | 0          |   0.0 |  0.00
Other   |            | 6.29e-07   |            |       |100.00

Nlocal:              2 ave           2 max           2 min
Histogram: 1 0 0 0 0 0 0 0 0 0
Nghost:            557 ave         557 max         557 min
Histogram: 1 0 0 0 0 0 0 0 0 0
Neighs:            146 ave         146 max         146 min
Histogram: 1 0 0 0 0 0 0 0 0 0
FullNghs:          292 ave         292 max         292 min
Histogram: 1 0 0 0 0 0 0 0 0 0

Total # of neighbors = 292
Ave neighs/atom = 146
Neighbor list builds = 0
Dangerous builds = 0
set atom * x 0.0 y 0.0 z 0.0
Setting atom values ...
  2 settings made for x
  2 settings made for y
  2 settings made for z
change_box all     x final 0 3.8757056655436064 y final 0 3.3564595639520385 z final 0 3.1645004245985713      xy final 1.9378528327718034 xz final 1.9378528327718034 yz final 1.1188198546506796 units box
Changing box ...
WARNING: Triclinic box skew is large. LAMMPS will run inefficiently. (src/domain.cpp:221)
  triclinic box = (0 0 0) to (3.8757057 3.0245485 2.8515717) with tilt (1.7462239 1.7462239 1.0081828)
WARNING: Triclinic box skew is large. LAMMPS will run inefficiently. (src/domain.cpp:221)
  triclinic box = (0 0 0) to (3.8757057 3.3564596 2.8515717) with tilt (1.7462239 1.7462239 1.0081828)
WARNING: Triclinic box skew is large. LAMMPS will run inefficiently. (src/domain.cpp:221)
  triclinic box = (0 0 0) to (3.8757057 3.3564596 3.1645004) with tilt (1.7462239 1.7462239 1.0081828)
WARNING: Triclinic box skew is large. LAMMPS will run inefficiently. (src/domain.cpp:221)
  triclinic box = (0 0 0) to (3.8757057 3.3564596 3.1645004) with tilt (1.9378528 1.7462239 1.0081828)
WARNING: Triclinic box skew is large. LAMMPS will run inefficiently. (src/domain.cpp:221)
  triclinic box = (0 0 0) to (3.8757057 3.3564596 3.1645004) with tilt (1.9378528 1.9378528 1.0081828)
WARNING: Triclinic box skew is large. LAMMPS will run inefficiently. (src/domain.cpp:221)
  triclinic box = (0 0 0) to (3.8757057 3.3564596 3.1645004) with tilt (1.9378528 1.9378528 1.1188199)
echo none
run 0
WARNING: No fixes with time integration, atoms won't move (src/verlet.cpp:60)
Per MPI rank memory allocation (min/avg/max) = 3.623 | 3.623 | 3.623 Mbytes
    PotEng          Pxx           E_mol          E_coul    
-326.35412     -9521.5078      0              0            
Loop time of 6.41e-07 on 1 procs for 0 steps with 2 atoms

312.0% CPU use with 1 MPI tasks x 1 OpenMP threads

MPI task timing breakdown:
Section |  min time  |  avg time  |  max time  |%varavg| %total
---------------------------------------------------------------
Pair    | 0          | 0          | 0          |   0.0 |  0.00
Neigh   | 0          | 0          | 0          |   0.0 |  0.00
Comm    | 0          | 0          | 0          |   0.0 |  0.00
Output  | 0          | 0          | 0          |   0.0 |  0.00
Modify  | 0          | 0          | 0          |   0.0 |  0.00
Other   |            | 6.41e-07   |            |       |100.00

Nlocal:              2 ave           2 max           2 min
Histogram: 1 0 0 0 0 0 0 0 0 0
Nghost:            430 ave         430 max         430 min
Histogram: 1 0 0 0 0 0 0 0 0 0
Neighs:             98 ave          98 max          98 min
Histogram: 1 0 0 0 0 0 0 0 0 0
FullNghs:          196 ave         196 max         196 min
Histogram: 1 0 0 0 0 0 0 0 0 0

Total # of neighbors = 196
Ave neighs/atom = 98
Neighbor list builds = 0
Dangerous builds = 0
set atom * x 0.0 y 0.0 z 0.0
Setting atom values ...
  2 settings made for x
  2 settings made for y
  2 settings made for z
change_box all     x final 0 3.906962706233564 y final 0 3.383528955236666 z final 0 3.1900216914518404      xy final 1.9534813531167823 xz final 1.953481353116782 yz final 1.1278429850788885 units box
Changing box ...
WARNING: Triclinic box skew is large. LAMMPS will run inefficiently. (src/domain.cpp:221)
  triclinic box = (0 0 0) to (3.9069627 3.3564596 3.1645004) with tilt (1.9378528 1.9378528 1.1188199)
WARNING: Triclinic box skew is large. LAMMPS will run inefficiently. (src/domain.cpp:221)
  triclinic box = (0 0 0) to (3.9069627 3.383529 3.1645004) with tilt (1.9378528 1.9378528 1.1188199)
WARNING: Triclinic box skew is large. LAMMPS will run inefficiently. (src/domain.cpp:221)
  triclinic box = (0 0 0) to (3.9069627 3.383529 3.1900217) with tilt (1.9378528 1.9378528 1.1188199)
WARNING: Triclinic box skew is large. LAMMPS will run inefficiently. (src/domain.cpp:221)
  triclinic box = (0 0 0) to (3.9069627 3.383529 3.1900217) with tilt (1.9534814 1.9378528 1.1188199)
WARNING: Triclinic box skew is large. LAMMPS will run inefficiently. (src/domain.cpp:221)
  triclinic box = (0 0 0) to (3.9069627 3.383529 3.1900217) with tilt (1.9534814 1.9534814 1.1188199)
WARNING: Triclinic box skew is large. LAMMPS will run inefficiently. (src/domain.cpp:221)
  triclinic box = (0 0 0) to (3.9069627 3.383529 3.1900217) with tilt (1.9534814 1.9534814 1.127843)
echo none
run 0
WARNING: No fixes with time integration, atoms won't move (src/verlet.cpp:60)
Per MPI rank memory allocation (min/avg/max) = 3.623 | 3.623 | 3.623 Mbytes
    PotEng          Pxx           E_mol          E_coul    
-326.34211     -28489.494      0              0            
Loop time of 1.392e-06 on 1 procs for 0 steps with 2 atoms

215.5% CPU use with 1 MPI tasks x 1 OpenMP threads

MPI task timing breakdown:
Section |  min time  |  avg time  |  max time  |%varavg| %total
---------------------------------------------------------------
Pair    | 0          | 0          | 0          |   0.0 |  0.00
Neigh   | 0          | 0          | 0          |   0.0 |  0.00
Comm    | 0          | 0          | 0          |   0.0 |  0.00
Output  | 0          | 0          | 0          |   0.0 |  0.00
Modify  | 0          | 0          | 0          |   0.0 |  0.00
Other   |            | 1.392e-06  |            |       |100.00

Nlocal:              2 ave           2 max           2 min
Histogram: 1 0 0 0 0 0 0 0 0 0
Nghost:            430 ave         430 max         430 min
Histogram: 1 0 0 0 0 0 0 0 0 0
Neighs:             98 ave          98 max          98 min
Histogram: 1 0 0 0 0 0 0 0 0 0
FullNghs:          196 ave         196 max         196 min
Histogram: 1 0 0 0 0 0 0 0 0 0

Total # of neighbors = 196
Ave neighs/atom = 98
Neighbor list builds = 0
Dangerous builds = 0
set atom * x 0.0 y 0.0 z 0.0
Setting atom values ...
  2 settings made for x
  2 settings made for y
  2 settings made for z
change_box all     x final 0 3.9377274587804743 y final 0 3.410172012483432 z final 0 3.21514100671948      xy final 1.9688637293902373 xz final 1.9688637293902371 yz final 1.136724004161144 units box
Changing box ...
WARNING: Triclinic box skew is large. LAMMPS will run inefficiently. (src/domain.cpp:221)
  triclinic box = (0 0 0) to (3.9377275 3.383529 3.1900217) with tilt (1.9534814 1.9534814 1.127843)
WARNING: Triclinic box skew is large. LAMMPS will run inefficiently. (src/domain.cpp:221)
  triclinic box = (0 0 0) to (3.9377275 3.410172 3.1900217) with tilt (1.9534814 1.9534814 1.127843)
WARNING: Triclinic box skew is large. LAMMPS will run inefficiently. (src/domain.cpp:221)
  triclinic box = (0 0 0) to (3.9377275 3.410172 3.215141) with tilt (1.9534814 1.9534814 1.127843)
WARNING: Triclinic box skew is large. LAMMPS will run inefficiently. (src/domain.cpp:221)
  triclinic box = (0 0 0) to (3.9377275 3.410172 3.215141) with tilt (1.9688637 1.9534814 1.127843)
WARNING: Triclinic box skew is large. LAMMPS will run inefficiently. (src/domain.cpp:221)
  triclinic box = (0 0 0) to (3.9377275 3.410172 3.215141) with tilt (1.9688637 1.9688637 1.127843)
WARNING: Triclinic box skew is large. LAMMPS will run inefficiently. (src/domain.cpp:221)
  triclinic box = (0 0 0) to (3.9377275 3.410172 3.215141) with tilt (1.9688637 1.9688637 1.136724)
echo none
run 0
Per MPI rank memory allocation (min/avg/max) = 3.623 | 3.623 | 3.623 Mbytes
    PotEng          Pxx           E_mol          E_coul    
WARNING: Too many warnings: 101 vs 100. All future warnings will be suppressed (src/thermo.cpp:478)
-326.31888     -45278.75       0              0            
Loop time of 6.19e-07 on 1 procs for 0 steps with 2 atoms

161.6% CPU use with 1 MPI tasks x 1 OpenMP threads

MPI task timing breakdown:
Section |  min time  |  avg time  |  max time  |%varavg| %total
---------------------------------------------------------------
Pair    | 0          | 0          | 0          |   0.0 |  0.00
Neigh   | 0          | 0          | 0          |   0.0 |  0.00
Comm    | 0          | 0          | 0          |   0.0 |  0.00
Output  | 0          | 0          | 0          |   0.0 |  0.00
Modify  | 0          | 0          | 0          |   0.0 |  0.00
Other   |            | 6.19e-07   |            |       |100.00

Nlocal:              2 ave           2 max           2 min
Histogram: 1 0 0 0 0 0 0 0 0 0
Nghost:            430 ave         430 max         430 min
Histogram: 1 0 0 0 0 0 0 0 0 0
Neighs:             98 ave          98 max          98 min
Histogram: 1 0 0 0 0 0 0 0 0 0
FullNghs:          196 ave         196 max         196 min
Histogram: 1 0 0 0 0 0 0 0 0 0

Total # of neighbors = 196
Ave neighs/atom = 98
Neighbor list builds = 0
Dangerous builds = 0
set atom * x 0.0 y 0.0 z 0.0
Setting atom values ...
  2 settings made for x
  2 settings made for y
  2 settings made for z
change_box all     x final 0 3.968018860391459 y final 0 3.436405135794782 z final 0 3.239873832566358      xy final 1.9840094301957296 xz final 1.9840094301957296 yz final 1.1454683785982605 units box
Changing box ...
  triclinic box = (0 0 0) to (3.9680189 3.410172 3.215141) with tilt (1.9688637 1.9688637 1.136724)
  triclinic box = (0 0 0) to (3.9680189 3.4364051 3.215141) with tilt (1.9688637 1.9688637 1.136724)
  triclinic box = (0 0 0) to (3.9680189 3.4364051 3.2398738) with tilt (1.9688637 1.9688637 1.136724)
  triclinic box = (0 0 0) to (3.9680189 3.4364051 3.2398738) with tilt (1.9840094 1.9688637 1.136724)
  triclinic box = (0 0 0) to (3.9680189 3.4364051 3.2398738) with tilt (1.9840094 1.9840094 1.136724)
  triclinic box = (0 0 0) to (3.9680189 3.4364051 3.2398738) with tilt (1.9840094 1.9840094 1.1454684)
echo none
run 0
Per MPI rank memory allocation (min/avg/max) = 3.623 | 3.623 | 3.623 Mbytes
    PotEng          Pxx           E_mol          E_coul    
-326.2858      -59984.799      0              0            
Loop time of 6.51e-07 on 1 procs for 0 steps with 2 atoms

153.6% CPU use with 1 MPI tasks x 1 OpenMP threads

MPI task timing breakdown:
Section |  min time  |  avg time  |  max time  |%varavg| %total
---------------------------------------------------------------
Pair    | 0          | 0          | 0          |   0.0 |  0.00
Neigh   | 0          | 0          | 0          |   0.0 |  0.00
Comm    | 0          | 0          | 0          |   0.0 |  0.00
Output  | 0          | 0          | 0          |   0.0 |  0.00
Modify  | 0          | 0          | 0          |   0.0 |  0.00
Other   |            | 6.51e-07   |            |       |100.00

Nlocal:              2 ave           2 max           2 min
Histogram: 1 0 0 0 0 0 0 0 0 0
Nghost:            430 ave         430 max         430 min
Histogram: 1 0 0 0 0 0 0 0 0 0
Neighs:             98 ave          98 max          98 min
Histogram: 1 0 0 0 0 0 0 0 0 0
FullNghs:          196 ave         196 max         196 min
Histogram: 1 0 0 0 0 0 0 0 0 0

Total # of neighbors = 196
Ave neighs/atom = 98
Neighbor list builds = 0
Dangerous builds = 0
set atom * x 0.0 y 0.0 z 0.0
Setting atom values ...
  2 settings made for x
  2 settings made for y
  2 settings made for z
change_box all     x final 0 3.997854708949879 y final 0 3.4622437385898386 z final 0 3.264234700903386      xy final 1.9989273544749397 xz final 1.9989273544749397 yz final 1.154081246196613 units box
Changing box ...
  triclinic box = (0 0 0) to (3.9978547 3.4364051 3.2398738) with tilt (1.9840094 1.9840094 1.1454684)
  triclinic box = (0 0 0) to (3.9978547 3.4622437 3.2398738) with tilt (1.9840094 1.9840094 1.1454684)
  triclinic box = (0 0 0) to (3.9978547 3.4622437 3.2642347) with tilt (1.9840094 1.9840094 1.1454684)
  triclinic box = (0 0 0) to (3.9978547 3.4622437 3.2642347) with tilt (1.9989274 1.9840094 1.1454684)
  triclinic box = (0 0 0) to (3.9978547 3.4622437 3.2642347) with tilt (1.9989274 1.9989274 1.1454684)
  triclinic box = (0 0 0) to (3.9978547 3.4622437 3.2642347) with tilt (1.9989274 1.9989274 1.1540812)
echo none
run 0
Per MPI rank memory allocation (min/avg/max) = 3.623 | 3.623 | 3.623 Mbytes
    PotEng          Pxx           E_mol          E_coul    
-326.24407     -72902.856      0              0            
Loop time of 6.37e-07 on 1 procs for 0 steps with 2 atoms

157.0% CPU use with 1 MPI tasks x 1 OpenMP threads

MPI task timing breakdown:
Section |  min time  |  avg time  |  max time  |%varavg| %total
---------------------------------------------------------------
Pair    | 0          | 0          | 0          |   0.0 |  0.00
Neigh   | 0          | 0          | 0          |   0.0 |  0.00
Comm    | 0          | 0          | 0          |   0.0 |  0.00
Output  | 0          | 0          | 0          |   0.0 |  0.00
Modify  | 0          | 0          | 0          |   0.0 |  0.00
Other   |            | 6.37e-07   |            |       |100.00

Nlocal:              2 ave           2 max           2 min
Histogram: 1 0 0 0 0 0 0 0 0 0
Nghost:            430 ave         430 max         430 min
Histogram: 1 0 0 0 0 0 0 0 0 0
Neighs:             98 ave          98 max          98 min
Histogram: 1 0 0 0 0 0 0 0 0 0
FullNghs:          196 ave         196 max         196 min
Histogram: 1 0 0 0 0 0 0 0 0 0

Total # of neighbors = 196
Ave neighs/atom = 98
Neighbor list builds = 0
Dangerous builds = 0
set atom * x 0.0 y 0.0 z 0.0
Setting atom values ...
  2 settings made for x
  2 settings made for y
  2 settings made for z
change_box all     x final 0 4.027251755190781 y final 0 3.4877023274306853 z final 0 3.288237288648456      xy final 2.0136258775953904 xz final 2.0136258775953904 yz final 1.162567442476895 units box
Changing box ...
  triclinic box = (0 0 0) to (4.0272518 3.4622437 3.2642347) with tilt (1.9989274 1.9989274 1.1540812)
  triclinic box = (0 0 0) to (4.0272518 3.4877023 3.2642347) with tilt (1.9989274 1.9989274 1.1540812)
  triclinic box = (0 0 0) to (4.0272518 3.4877023 3.2882373) with tilt (1.9989274 1.9989274 1.1540812)
  triclinic box = (0 0 0) to (4.0272518 3.4877023 3.2882373) with tilt (2.0136259 1.9989274 1.1540812)
  triclinic box = (0 0 0) to (4.0272518 3.4877023 3.2882373) with tilt (2.0136259 2.0136259 1.1540812)
  triclinic box = (0 0 0) to (4.0272518 3.4877023 3.2882373) with tilt (2.0136259 2.0136259 1.1625674)
echo none
run 0
Per MPI rank memory allocation (min/avg/max) = 3.623 | 3.623 | 3.623 Mbytes
    PotEng          Pxx           E_mol          E_coul    
-326.19476     -84225.501      0              0            
Loop time of 6.53e-07 on 1 procs for 0 steps with 2 atoms

153.1% CPU use with 1 MPI tasks x 1 OpenMP threads

MPI task timing breakdown:
Section |  min time  |  avg time  |  max time  |%varavg| %total
---------------------------------------------------------------
Pair    | 0          | 0          | 0          |   0.0 |  0.00
Neigh   | 0          | 0          | 0          |   0.0 |  0.00
Comm    | 0          | 0          | 0          |   0.0 |  0.00
Output  | 0          | 0          | 0          |   0.0 |  0.00
Modify  | 0          | 0          | 0          |   0.0 |  0.00
Other   |            | 6.53e-07   |            |       |100.00

Nlocal:              2 ave           2 max           2 min
Histogram: 1 0 0 0 0 0 0 0 0 0
Nghost:            430 ave         430 max         430 min
Histogram: 1 0 0 0 0 0 0 0 0 0
Neighs:             86 ave          86 max          86 min
Histogram: 1 0 0 0 0 0 0 0 0 0
FullNghs:          172 ave         172 max         172 min
Histogram: 1 0 0 0 0 0 0 0 0 0

Total # of neighbors = 172
Ave neighs/atom = 86
Neighbor list builds = 0
Dangerous builds = 0
set atom * x 0.0 y 0.0 z 0.0
Setting atom values ...
  2 settings made for x
  2 settings made for y
  2 settings made for z
change_box all     x final 0 4.056225785589607 y final 0 3.5127945738060906 z final 0 3.3118944854047934      xy final 2.028112892794803 xz final 2.028112892794803 yz final 1.1709315246020302 units box
Changing box ...
  triclinic box = (0 0 0) to (4.0562258 3.4877023 3.2882373) with tilt (2.0136259 2.0136259 1.1625674)
  triclinic box = (0 0 0) to (4.0562258 3.5127946 3.2882373) with tilt (2.0136259 2.0136259 1.1625674)
  triclinic box = (0 0 0) to (4.0562258 3.5127946 3.3118945) with tilt (2.0136259 2.0136259 1.1625674)
  triclinic box = (0 0 0) to (4.0562258 3.5127946 3.3118945) with tilt (2.0281129 2.0136259 1.1625674)
  triclinic box = (0 0 0) to (4.0562258 3.5127946 3.3118945) with tilt (2.0281129 2.0281129 1.1625674)
  triclinic box = (0 0 0) to (4.0562258 3.5127946 3.3118945) with tilt (2.0281129 2.0281129 1.1709315)
echo none
run 0
Per MPI rank memory allocation (min/avg/max) = 3.623 | 3.623 | 3.623 Mbytes
    PotEng          Pxx           E_mol          E_coul    
-326.13881     -94069.068      0              0            
Loop time of 6.44e-07 on 1 procs for 0 steps with 2 atoms

155.3% CPU use with 1 MPI tasks x 1 OpenMP threads

MPI task timing breakdown:
Section |  min time  |  avg time  |  max time  |%varavg| %total
---------------------------------------------------------------
Pair    | 0          | 0          | 0          |   0.0 |  0.00
Neigh   | 0          | 0          | 0          |   0.0 |  0.00
Comm    | 0          | 0          | 0          |   0.0 |  0.00
Output  | 0          | 0          | 0          |   0.0 |  0.00
Modify  | 0          | 0          | 0          |   0.0 |  0.00
Other   |            | 6.44e-07   |            |       |100.00

Nlocal:              2 ave           2 max           2 min
Histogram: 1 0 0 0 0 0 0 0 0 0
Nghost:            430 ave         430 max         430 min
Histogram: 1 0 0 0 0 0 0 0 0 0
Neighs:             86 ave          86 max          86 min
Histogram: 1 0 0 0 0 0 0 0 0 0
FullNghs:          172 ave         172 max         172 min
Histogram: 1 0 0 0 0 0 0 0 0 0

Total # of neighbors = 172
Ave neighs/atom = 86
Neighbor list builds = 0
Dangerous builds = 0
set atom * x 0.0 y 0.0 z 0.0
Setting atom values ...
  2 settings made for x
  2 settings made for y
  2 settings made for z
change_box all     x final 0 4.084791697076367 y final 0 3.5375333788358843 z final 0 3.3352184544648176      xy final 2.042395848538184 xz final 2.0423958485381837 yz final 1.1791777929452945 units box
Changing box ...
  triclinic box = (0 0 0) to (4.0847917 3.5127946 3.3118945) with tilt (2.0281129 2.0281129 1.1709315)
  triclinic box = (0 0 0) to (4.0847917 3.5375334 3.3118945) with tilt (2.0281129 2.0281129 1.1709315)
  triclinic box = (0 0 0) to (4.0847917 3.5375334 3.3352185) with tilt (2.0281129 2.0281129 1.1709315)
  triclinic box = (0 0 0) to (4.0847917 3.5375334 3.3352185) with tilt (2.0423958 2.0281129 1.1709315)
  triclinic box = (0 0 0) to (4.0847917 3.5375334 3.3352185) with tilt (2.0423958 2.0423958 1.1709315)
  triclinic box = (0 0 0) to (4.0847917 3.5375334 3.3352185) with tilt (2.0423958 2.0423958 1.1791778)
echo none
run 0
Per MPI rank memory allocation (min/avg/max) = 3.623 | 3.623 | 3.623 Mbytes
    PotEng          Pxx           E_mol          E_coul    
-326.07715     -102508.18      0              0            
Loop time of 6.72e-07 on 1 procs for 0 steps with 2 atoms

148.8% CPU use with 1 MPI tasks x 1 OpenMP threads

MPI task timing breakdown:
Section |  min time  |  avg time  |  max time  |%varavg| %total
---------------------------------------------------------------
Pair    | 0          | 0          | 0          |   0.0 |  0.00
Neigh   | 0          | 0          | 0          |   0.0 |  0.00
Comm    | 0          | 0          | 0          |   0.0 |  0.00
Output  | 0          | 0          | 0          |   0.0 |  0.00
Modify  | 0          | 0          | 0          |   0.0 |  0.00
Other   |            | 6.72e-07   |            |       |100.00

Nlocal:              2 ave           2 max           2 min
Histogram: 1 0 0 0 0 0 0 0 0 0
Nghost:            430 ave         430 max         430 min
Histogram: 1 0 0 0 0 0 0 0 0 0
Neighs:             86 ave          86 max          86 min
Histogram: 1 0 0 0 0 0 0 0 0 0
FullNghs:          172 ave         172 max         172 min
Histogram: 1 0 0 0 0 0 0 0 0 0

Total # of neighbors = 172
Ave neighs/atom = 86
Neighbor list builds = 0
Dangerous builds = 0
set atom * x 0.0 y 0.0 z 0.0
Setting atom values ...
  2 settings made for x
  2 settings made for y
  2 settings made for z
change_box all     x final 0 4.112963564533986 y final 0 3.561930931726229 z final 0 3.358220687922312      xy final 2.0564817822669927 xz final 2.0564817822669927 yz final 1.1873103105754097 units box
Changing box ...
  triclinic box = (0 0 0) to (4.1129636 3.5375334 3.3352185) with tilt (2.0423958 2.0423958 1.1791778)
  triclinic box = (0 0 0) to (4.1129636 3.5619309 3.3352185) with tilt (2.0423958 2.0423958 1.1791778)
  triclinic box = (0 0 0) to (4.1129636 3.5619309 3.3582207) with tilt (2.0423958 2.0423958 1.1791778)
  triclinic box = (0 0 0) to (4.1129636 3.5619309 3.3582207) with tilt (2.0564818 2.0423958 1.1791778)
  triclinic box = (0 0 0) to (4.1129636 3.5619309 3.3582207) with tilt (2.0564818 2.0564818 1.1791778)
  triclinic box = (0 0 0) to (4.1129636 3.5619309 3.3582207) with tilt (2.0564818 2.0564818 1.1873103)
echo none
run 0
Per MPI rank memory allocation (min/avg/max) = 3.623 | 3.623 | 3.623 Mbytes
    PotEng          Pxx           E_mol          E_coul    
-326.01062     -109608.41      0              0            
Loop time of 6.61e-07 on 1 procs for 0 steps with 2 atoms

302.6% CPU use with 1 MPI tasks x 1 OpenMP threads

MPI task timing breakdown:
Section |  min time  |  avg time  |  max time  |%varavg| %total
---------------------------------------------------------------
Pair    | 0          | 0          | 0          |   0.0 |  0.00
Neigh   | 0          | 0          | 0          |   0.0 |  0.00
Comm    | 0          | 0          | 0          |   0.0 |  0.00
Output  | 0          | 0          | 0          |   0.0 |  0.00
Modify  | 0          | 0          | 0          |   0.0 |  0.00
Other   |            | 6.61e-07   |            |       |100.00

Nlocal:              2 ave           2 max           2 min
Histogram: 1 0 0 0 0 0 0 0 0 0
Nghost:            430 ave         430 max         430 min
Histogram: 1 0 0 0 0 0 0 0 0 0
Neighs:             86 ave          86 max          86 min
Histogram: 1 0 0 0 0 0 0 0 0 0
FullNghs:          172 ave         172 max         172 min
Histogram: 1 0 0 0 0 0 0 0 0 0

Total # of neighbors = 172
Ave neighs/atom = 86
Neighbor list builds = 0
Dangerous builds = 0
set atom * x 0.0 y 0.0 z 0.0
Setting atom values ...
  2 settings made for x
  2 settings made for y
  2 settings made for z
change_box all     x final 0 4.1407547019099225 y final 0 3.5859987626938534 z final 0 3.3809120565698567      xy final 2.0703773509549612 xz final 2.070377350954961 yz final 1.195332920897951 units box
Changing box ...
  triclinic box = (0 0 0) to (4.1407547 3.5619309 3.3582207) with tilt (2.0564818 2.0564818 1.1873103)
  triclinic box = (0 0 0) to (4.1407547 3.5859988 3.3582207) with tilt (2.0564818 2.0564818 1.1873103)
  triclinic box = (0 0 0) to (4.1407547 3.5859988 3.3809121) with tilt (2.0564818 2.0564818 1.1873103)
  triclinic box = (0 0 0) to (4.1407547 3.5859988 3.3809121) with tilt (2.0703774 2.0564818 1.1873103)
  triclinic box = (0 0 0) to (4.1407547 3.5859988 3.3809121) with tilt (2.0703774 2.0703774 1.1873103)
  triclinic box = (0 0 0) to (4.1407547 3.5859988 3.3809121) with tilt (2.0703774 2.0703774 1.1953329)
echo none
run 0
Per MPI rank memory allocation (min/avg/max) = 3.623 | 3.623 | 3.623 Mbytes
    PotEng          Pxx           E_mol          E_coul    
-325.94003     -115451.38      0              0            
Loop time of 6.44e-07 on 1 procs for 0 steps with 2 atoms

155.3% CPU use with 1 MPI tasks x 1 OpenMP threads

MPI task timing breakdown:
Section |  min time  |  avg time  |  max time  |%varavg| %total
---------------------------------------------------------------
Pair    | 0          | 0          | 0          |   0.0 |  0.00
Neigh   | 0          | 0          | 0          |   0.0 |  0.00
Comm    | 0          | 0          | 0          |   0.0 |  0.00
Output  | 0          | 0          | 0          |   0.0 |  0.00
Modify  | 0          | 0          | 0          |   0.0 |  0.00
Other   |            | 6.44e-07   |            |       |100.00

Nlocal:              2 ave           2 max           2 min
Histogram: 1 0 0 0 0 0 0 0 0 0
Nghost:            430 ave         430 max         430 min
Histogram: 1 0 0 0 0 0 0 0 0 0
Neighs:             86 ave          86 max          86 min
Histogram: 1 0 0 0 0 0 0 0 0 0
FullNghs:          172 ave         172 max         172 min
Histogram: 1 0 0 0 0 0 0 0 0 0

Total # of neighbors = 172
Ave neighs/atom = 86
Neighbor list builds = 0
Dangerous builds = 0
set atom * x 0.0 y 0.0 z 0.0
Setting atom values ...
  2 settings made for x
  2 settings made for y
  2 settings made for z
change_box all     x final 0 3.805787991992219 y final 0 3.339377353939908 z final 0 3.096606742764799      xy final 1.8255358468092235 xz final 1.902602810992897 yz final 1.1282442499212328 units box
Changing box ...
  triclinic box = (0 0 0) to (3.805788 3.5859988 3.3809121) with tilt (2.0703774 2.0703774 1.1953329)
  triclinic box = (0 0 0) to (3.805788 3.3393774 3.3809121) with tilt (2.0703774 2.0703774 1.1953329)
  triclinic box = (0 0 0) to (3.805788 3.3393774 3.0966067) with tilt (2.0703774 2.0703774 1.1953329)
  triclinic box = (0 0 0) to (3.805788 3.3393774 3.0966067) with tilt (1.8255358 2.0703774 1.1953329)
  triclinic box = (0 0 0) to (3.805788 3.3393774 3.0966067) with tilt (1.8255358 1.9026028 1.1953329)
  triclinic box = (0 0 0) to (3.805788 3.3393774 3.0966067) with tilt (1.8255358 1.9026028 1.1282442)
echo none
run 0
Per MPI rank memory allocation (min/avg/max) = 3.623 | 3.623 | 3.623 Mbytes
    PotEng          Pxx           E_mol          E_coul    
-326.33387      35250.881      0              0            
Loop time of 6.68e-07 on 1 procs for 0 steps with 2 atoms

149.7% CPU use with 1 MPI tasks x 1 OpenMP threads

MPI task timing breakdown:
Section |  min time  |  avg time  |  max time  |%varavg| %total
---------------------------------------------------------------
Pair    | 0          | 0          | 0          |   0.0 |  0.00
Neigh   | 0          | 0          | 0          |   0.0 |  0.00
Comm    | 0          | 0          | 0          |   0.0 |  0.00
Output  | 0          | 0          | 0          |   0.0 |  0.00
Modify  | 0          | 0          | 0          |   0.0 |  0.00
Other   |            | 6.68e-07   |            |       |100.00

Nlocal:              2 ave           2 max           2 min
Histogram: 1 0 0 0 0 0 0 0 0 0
Nghost:            430 ave         430 max         430 min
Histogram: 1 0 0 0 0 0 0 0 0 0
Neighs:            114 ave         114 max         114 min
Histogram: 1 0 0 0 0 0 0 0 0 0
FullNghs:          228 ave         228 max         228 min
Histogram: 1 0 0 0 0 0 0 0 0 0

Total # of neighbors = 228
Ave neighs/atom = 114
Neighbor list builds = 0
Dangerous builds = 0
set atom * x 0.0 y 0.0 z 0.0
Setting atom values ...
  2 settings made for x
  2 settings made for y
  2 settings made for z
change_box all     x final 0 3.805787991992219 y final 0 3.339377353939908 z final 0 3.096606742764799      xy final 1.8255358468092235 xz final 1.902602810992897 yz final 1.1282442499212328 units box
Changing box ...
  triclinic box = (0 0 0) to (3.805788 3.3393774 3.0966067) with tilt (1.8255358 1.9026028 1.1282442)
  triclinic box = (0 0 0) to (3.805788 3.3393774 3.0966067) with tilt (1.8255358 1.9026028 1.1282442)
  triclinic box = (0 0 0) to (3.805788 3.3393774 3.0966067) with tilt (1.8255358 1.9026028 1.1282442)
  triclinic box = (0 0 0) to (3.805788 3.3393774 3.0966067) with tilt (1.8255358 1.9026028 1.1282442)
  triclinic box = (0 0 0) to (3.805788 3.3393774 3.0966067) with tilt (1.8255358 1.9026028 1.1282442)
  triclinic box = (0 0 0) to (3.805788 3.3393774 3.0966067) with tilt (1.8255358 1.9026028 1.1282442)
echo none
run 0
Per MPI rank memory allocation (min/avg/max) = 3.623 | 3.623 | 3.623 Mbytes
    PotEng          Pxx           E_mol          E_coul    
-326.30914      34454.823      0              0            
Loop time of 6.8e-07 on 1 procs for 0 steps with 2 atoms

147.1% CPU use with 1 MPI tasks x 1 OpenMP threads

MPI task timing breakdown:
Section |  min time  |  avg time  |  max time  |%varavg| %total
---------------------------------------------------------------
Pair    | 0          | 0          | 0          |   0.0 |  0.00
Neigh   | 0          | 0          | 0          |   0.0 |  0.00
Comm    | 0          | 0          | 0          |   0.0 |  0.00
Output  | 0          | 0          | 0          |   0.0 |  0.00
Modify  | 0          | 0          | 0          |   0.0 |  0.00
Other   |            | 6.8e-07    |            |       |100.00

Nlocal:              2 ave           2 max           2 min
Histogram: 1 0 0 0 0 0 0 0 0 0
Nghost:            430 ave         430 max         430 min
Histogram: 1 0 0 0 0 0 0 0 0 0
Neighs:            110 ave         110 max         110 min
Histogram: 1 0 0 0 0 0 0 0 0 0
FullNghs:          220 ave         220 max         220 min
Histogram: 1 0 0 0 0 0 0 0 0 0

Total # of neighbors = 220
Ave neighs/atom = 110
Neighbor list builds = 0
Dangerous builds = 0
set atom * x 0.0 y 0.0 z 0.0
Setting atom values ...
  2 settings made for x
  2 settings made for y
  2 settings made for z
change_box all     x final 0 3.805787991992219 y final 0 3.339377353939908 z final 0 3.096606742764799      xy final 1.8255358468092235 xz final 1.902602810992897 yz final 1.1282442499212328 units box
Changing box ...
  triclinic box = (0 0 0) to (3.805788 3.3393774 3.0966067) with tilt (1.8255358 1.9026028 1.1282442)
  triclinic box = (0 0 0) to (3.805788 3.3393774 3.0966067) with tilt (1.8255358 1.9026028 1.1282442)
  triclinic box = (0 0 0) to (3.805788 3.3393774 3.0966067) with tilt (1.8255358 1.9026028 1.1282442)
  triclinic box = (0 0 0) to (3.805788 3.3393774 3.0966067) with tilt (1.8255358 1.9026028 1.1282442)
  triclinic box = (0 0 0) to (3.805788 3.3393774 3.0966067) with tilt (1.8255358 1.9026028 1.1282442)
  triclinic box = (0 0 0) to (3.805788 3.3393774 3.0966067) with tilt (1.8255358 1.9026028 1.1282442)
echo none
run 0
Per MPI rank memory allocation (min/avg/max) = 3.623 | 3.623 | 3.623 Mbytes
    PotEng          Pxx           E_mol          E_coul    
-326.33573      34783.015      0              0            
Loop time of 6.03e-07 on 1 procs for 0 steps with 2 atoms

165.8% CPU use with 1 MPI tasks x 1 OpenMP threads

MPI task timing breakdown:
Section |  min time  |  avg time  |  max time  |%varavg| %total
---------------------------------------------------------------
Pair    | 0          | 0          | 0          |   0.0 |  0.00
Neigh   | 0          | 0          | 0          |   0.0 |  0.00
Comm    | 0          | 0          | 0          |   0.0 |  0.00
Output  | 0          | 0          | 0          |   0.0 |  0.00
Modify  | 0          | 0          | 0          |   0.0 |  0.00
Other   |            | 6.03e-07   |            |       |100.00

Nlocal:              2 ave           2 max           2 min
Histogram: 1 0 0 0 0 0 0 0 0 0
Nghost:            430 ave         430 max         430 min
Histogram: 1 0 0 0 0 0 0 0 0 0
Neighs:            114 ave         114 max         114 min
Histogram: 1 0 0 0 0 0 0 0 0 0
FullNghs:          228 ave         228 max         228 min
Histogram: 1 0 0 0 0 0 0 0 0 0

Total # of neighbors = 228
Ave neighs/atom = 114
Neighbor list builds = 0
Dangerous builds = 0
set atom * x 0.0 y 0.0 z 0.0
Setting atom values ...
  2 settings made for x
  2 settings made for y
  2 settings made for z
change_box all     x final 0 3.8247889119327767 y final 0 3.3343293547989425 z final 0 3.1176106024928134      xy final 1.873835098019563 xz final 1.9123220213553425 yz final 1.118921241425594 units box
Changing box ...
  triclinic box = (0 0 0) to (3.8247889 3.3393774 3.0966067) with tilt (1.8255358 1.9026028 1.1282442)
  triclinic box = (0 0 0) to (3.8247889 3.3343294 3.0966067) with tilt (1.8255358 1.9026028 1.1282442)
  triclinic box = (0 0 0) to (3.8247889 3.3343294 3.1176106) with tilt (1.8255358 1.9026028 1.1282442)
  triclinic box = (0 0 0) to (3.8247889 3.3343294 3.1176106) with tilt (1.8738351 1.9026028 1.1282442)
  triclinic box = (0 0 0) to (3.8247889 3.3343294 3.1176106) with tilt (1.8738351 1.912322 1.1282442)
  triclinic box = (0 0 0) to (3.8247889 3.3343294 3.1176106) with tilt (1.8738351 1.912322 1.1189212)
echo none
run 0
Per MPI rank memory allocation (min/avg/max) = 3.623 | 3.623 | 3.623 Mbytes
    PotEng          Pxx           E_mol          E_coul    
-326.34702      23543.668      0              0            
Loop time of 5.85e-07 on 1 procs for 0 steps with 2 atoms

170.9% CPU use with 1 MPI tasks x 1 OpenMP threads

MPI task timing breakdown:
Section |  min time  |  avg time  |  max time  |%varavg| %total
---------------------------------------------------------------
Pair    | 0          | 0          | 0          |   0.0 |  0.00
Neigh   | 0          | 0          | 0          |   0.0 |  0.00
Comm    | 0          | 0          | 0          |   0.0 |  0.00
Output  | 0          | 0          | 0          |   0.0 |  0.00
Modify  | 0          | 0          | 0          |   0.0 |  0.00
Other   |            | 5.85e-07   |            |       |100.00

Nlocal:              2 ave           2 max           2 min
Histogram: 1 0 0 0 0 0 0 0 0 0
Nghost:            430 ave         430 max         430 min
Histogram: 1 0 0 0 0 0 0 0 0 0
Neighs:            106 ave         106 max         106 min
Histogram: 1 0 0 0 0 0 0 0 0 0
FullNghs:          212 ave         212 max         212 min
Histogram: 1 0 0 0 0 0 0 0 0 0

Total # of neighbors = 212
Ave neighs/atom = 106
Neighbor list builds = 0
Dangerous builds = 0
set atom * x 0.0 y 0.0 z 0.0
Setting atom values ...
  2 settings made for x
  2 settings made for y
  2 settings made for z
change_box all     x final 0 3.8247889119327767 y final 0 3.3343293547989425 z final 0 3.1176106024928134      xy final 1.873835098019563 xz final 1.9123220213553425 yz final 1.118921241425594 units box
Changing box ...
  triclinic box = (0 0 0) to (3.8247889 3.3343294 3.1176106) with tilt (1.8738351 1.912322 1.1189212)
  triclinic box = (0 0 0) to (3.8247889 3.3343294 3.1176106) with tilt (1.8738351 1.912322 1.1189212)
  triclinic box = (0 0 0) to (3.8247889 3.3343294 3.1176106) with tilt (1.8738351 1.912322 1.1189212)
  triclinic box = (0 0 0) to (3.8247889 3.3343294 3.1176106) with tilt (1.8738351 1.912322 1.1189212)
  triclinic box = (0 0 0) to (3.8247889 3.3343294 3.1176106) with tilt (1.8738351 1.912322 1.1189212)
  triclinic box = (0 0 0) to (3.8247889 3.3343294 3.1176106) with tilt (1.8738351 1.912322 1.1189212)
echo none
run 0
Per MPI rank memory allocation (min/avg/max) = 3.623 | 3.623 | 3.623 Mbytes
    PotEng          Pxx           E_mol          E_coul    
-326.31359      24122.383      0              0            
Loop time of 6.17e-07 on 1 procs for 0 steps with 2 atoms

162.1% CPU use with 1 MPI tasks x 1 OpenMP threads

MPI task timing breakdown:
Section |  min time  |  avg time  |  max time  |%varavg| %total
---------------------------------------------------------------
Pair    | 0          | 0          | 0          |   0.0 |  0.00
Neigh   | 0          | 0          | 0          |   0.0 |  0.00
Comm    | 0          | 0          | 0          |   0.0 |  0.00
Output  | 0          | 0          | 0          |   0.0 |  0.00
Modify  | 0          | 0          | 0          |   0.0 |  0.00
Other   |            | 6.17e-07   |            |       |100.00

Nlocal:              2 ave           2 max           2 min
Histogram: 1 0 0 0 0 0 0 0 0 0
Nghost:            430 ave         430 max         430 min
Histogram: 1 0 0 0 0 0 0 0 0 0
Neighs:            110 ave         110 max         110 min
Histogram: 1 0 0 0 0 0 0 0 0 0
FullNghs:          220 ave         220 max         220 min
Histogram: 1 0 0 0 0 0 0 0 0 0

Total # of neighbors = 220
Ave neighs/atom = 110
Neighbor list builds = 0
Dangerous builds = 0
set atom * x 0.0 y 0.0 z 0.0
Setting atom values ...
  2 settings made for x
  2 settings made for y
  2 settings made for z
change_box all     x final 0 3.8247889119327767 y final 0 3.3343293547989425 z final 0 3.1176106024928134      xy final 1.873835098019563 xz final 1.9123220213553425 yz final 1.118921241425594 units box
Changing box ...
  triclinic box = (0 0 0) to (3.8247889 3.3343294 3.1176106) with tilt (1.8738351 1.912322 1.1189212)
  triclinic box = (0 0 0) to (3.8247889 3.3343294 3.1176106) with tilt (1.8738351 1.912322 1.1189212)
  triclinic box = (0 0 0) to (3.8247889 3.3343294 3.1176106) with tilt (1.8738351 1.912322 1.1189212)
  triclinic box = (0 0 0) to (3.8247889 3.3343294 3.1176106) with tilt (1.8738351 1.912322 1.1189212)
  triclinic box = (0 0 0) to (3.8247889 3.3343294 3.1176106) with tilt (1.8738351 1.912322 1.1189212)
  triclinic box = (0 0 0) to (3.8247889 3.3343294 3.1176106) with tilt (1.8738351 1.912322 1.1189212)
echo none
run 0
Per MPI rank memory allocation (min/avg/max) = 3.623 | 3.623 | 3.623 Mbytes
    PotEng          Pxx           E_mol          E_coul    
-326.34745      23430.892      0              0            
Loop time of 6.19e-07 on 1 procs for 0 steps with 2 atoms

161.6% CPU use with 1 MPI tasks x 1 OpenMP threads

MPI task timing breakdown:
Section |  min time  |  avg time  |  max time  |%varavg| %total
---------------------------------------------------------------
Pair    | 0          | 0          | 0          |   0.0 |  0.00
Neigh   | 0          | 0          | 0          |   0.0 |  0.00
Comm    | 0          | 0          | 0          |   0.0 |  0.00
Output  | 0          | 0          | 0          |   0.0 |  0.00
Modify  | 0          | 0          | 0          |   0.0 |  0.00
Other   |            | 6.19e-07   |            |       |100.00

Nlocal:              2 ave           2 max           2 min
Histogram: 1 0 0 0 0 0 0 0 0 0
Nghost:            430 ave         430 max         430 min
Histogram: 1 0 0 0 0 0 0 0 0 0
Neighs:            106 ave         106 max         106 min
Histogram: 1 0 0 0 0 0 0 0 0 0
FullNghs:          212 ave         212 max         212 min
Histogram: 1 0 0 0 0 0 0 0 0 0

Total # of neighbors = 212
Ave neighs/atom = 106
Neighbor list builds = 0
Dangerous builds = 0
set atom * x 0.0 y 0.0 z 0.0
Setting atom values ...
  2 settings made for x
  2 settings made for y
  2 settings made for z
change_box all     x final 0 3.843936157422942 y final 0 3.3289463628538067 z final 0 3.138560729840294      xy final 1.9219680787114708 xz final 1.9219680787114708 yz final 1.1096487876179357 units box
Changing box ...
  triclinic box = (0 0 0) to (3.8439362 3.3343294 3.1176106) with tilt (1.8738351 1.912322 1.1189212)
  triclinic box = (0 0 0) to (3.8439362 3.3289464 3.1176106) with tilt (1.8738351 1.912322 1.1189212)
  triclinic box = (0 0 0) to (3.8439362 3.3289464 3.1385607) with tilt (1.8738351 1.912322 1.1189212)
  triclinic box = (0 0 0) to (3.8439362 3.3289464 3.1385607) with tilt (1.9219681 1.912322 1.1189212)
  triclinic box = (0 0 0) to (3.8439362 3.3289464 3.1385607) with tilt (1.9219681 1.9219681 1.1189212)
  triclinic box = (0 0 0) to (3.8439362 3.3289464 3.1385607) with tilt (1.9219681 1.9219681 1.1096488)
echo none
run 0
Per MPI rank memory allocation (min/avg/max) = 3.623 | 3.623 | 3.623 Mbytes
    PotEng          Pxx           E_mol          E_coul    
-326.35342      12311.508      0              0            
Loop time of 6.23e-07 on 1 procs for 0 steps with 2 atoms

160.5% CPU use with 1 MPI tasks x 1 OpenMP threads

MPI task timing breakdown:
Section |  min time  |  avg time  |  max time  |%varavg| %total
---------------------------------------------------------------
Pair    | 0          | 0          | 0          |   0.0 |  0.00
Neigh   | 0          | 0          | 0          |   0.0 |  0.00
Comm    | 0          | 0          | 0          |   0.0 |  0.00
Output  | 0          | 0          | 0          |   0.0 |  0.00
Modify  | 0          | 0          | 0          |   0.0 |  0.00
Other   |            | 6.23e-07   |            |       |100.00

Nlocal:              2 ave           2 max           2 min
Histogram: 1 0 0 0 0 0 0 0 0 0
Nghost:            430 ave         430 max         430 min
Histogram: 1 0 0 0 0 0 0 0 0 0
Neighs:             98 ave          98 max          98 min
Histogram: 1 0 0 0 0 0 0 0 0 0
FullNghs:          196 ave         196 max         196 min
Histogram: 1 0 0 0 0 0 0 0 0 0

Total # of neighbors = 196
Ave neighs/atom = 98
Neighbor list builds = 0
Dangerous builds = 0
set atom * x 0.0 y 0.0 z 0.0
Setting atom values ...
  2 settings made for x
  2 settings made for y
  2 settings made for z
change_box all     x final 0 3.8632275527712294 y final 0 3.323235093868349 z final 0 3.159458543894613      xy final 1.9699329012361333 xz final 1.931542062490074 yz final 1.1004271900218443 units box
Changing box ...
  triclinic box = (0 0 0) to (3.8632276 3.3289464 3.1385607) with tilt (1.9219681 1.9219681 1.1096488)
  triclinic box = (0 0 0) to (3.8632276 3.3232351 3.1385607) with tilt (1.9219681 1.9219681 1.1096488)
  triclinic box = (0 0 0) to (3.8632276 3.3232351 3.1594585) with tilt (1.9219681 1.9219681 1.1096488)
  triclinic box = (0 0 0) to (3.8632276 3.3232351 3.1594585) with tilt (1.9699329 1.9219681 1.1096488)
  triclinic box = (0 0 0) to (3.8632276 3.3232351 3.1594585) with tilt (1.9699329 1.9315421 1.1096488)
  triclinic box = (0 0 0) to (3.8632276 3.3232351 3.1594585) with tilt (1.9699329 1.9315421 1.1004272)
echo none
run 0
Per MPI rank memory allocation (min/avg/max) = 3.623 | 3.623 | 3.623 Mbytes
    PotEng          Pxx           E_mol          E_coul    
-326.35327      1588.4633      0              0            
Loop time of 5.97e-07 on 1 procs for 0 steps with 2 atoms

167.5% CPU use with 1 MPI tasks x 1 OpenMP threads

MPI task timing breakdown:
Section |  min time  |  avg time  |  max time  |%varavg| %total
---------------------------------------------------------------
Pair    | 0          | 0          | 0          |   0.0 |  0.00
Neigh   | 0          | 0          | 0          |   0.0 |  0.00
Comm    | 0          | 0          | 0          |   0.0 |  0.00
Output  | 0          | 0          | 0          |   0.0 |  0.00
Modify  | 0          | 0          | 0          |   0.0 |  0.00
Other   |            | 5.97e-07   |            |       |100.00

Nlocal:              2 ave           2 max           2 min
Histogram: 1 0 0 0 0 0 0 0 0 0
Nghost:            430 ave         430 max         430 min
Histogram: 1 0 0 0 0 0 0 0 0 0
Neighs:             98 ave          98 max          98 min
Histogram: 1 0 0 0 0 0 0 0 0 0
FullNghs:          196 ave         196 max         196 min
Histogram: 1 0 0 0 0 0 0 0 0 0

Total # of neighbors = 196
Ave neighs/atom = 98
Neighbor list builds = 0
Dangerous builds = 0
set atom * x 0.0 y 0.0 z 0.0
Setting atom values ...
  2 settings made for x
  2 settings made for y
  2 settings made for z
change_box all     x final 0 3.8632275527712294 y final 0 3.323235093868349 z final 0 3.159458543894613      xy final 1.9699329012361333 xz final 1.931542062490074 yz final 1.1004271900218443 units box
Changing box ...
  triclinic box = (0 0 0) to (3.8632276 3.3232351 3.1594585) with tilt (1.9699329 1.9315421 1.1004272)
  triclinic box = (0 0 0) to (3.8632276 3.3232351 3.1594585) with tilt (1.9699329 1.9315421 1.1004272)
  triclinic box = (0 0 0) to (3.8632276 3.3232351 3.1594585) with tilt (1.9699329 1.9315421 1.1004272)
  triclinic box = (0 0 0) to (3.8632276 3.3232351 3.1594585) with tilt (1.9699329 1.9315421 1.1004272)
  triclinic box = (0 0 0) to (3.8632276 3.3232351 3.1594585) with tilt (1.9699329 1.9315421 1.1004272)
  triclinic box = (0 0 0) to (3.8632276 3.3232351 3.1594585) with tilt (1.9699329 1.9315421 1.1004272)
echo none
run 0
Per MPI rank memory allocation (min/avg/max) = 3.623 | 3.623 | 3.623 Mbytes
    PotEng          Pxx           E_mol          E_coul    
-326.3205       2363.4824      0              0            
Loop time of 5.83e-07 on 1 procs for 0 steps with 2 atoms

171.5% CPU use with 1 MPI tasks x 1 OpenMP threads

MPI task timing breakdown:
Section |  min time  |  avg time  |  max time  |%varavg| %total
---------------------------------------------------------------
Pair    | 0          | 0          | 0          |   0.0 |  0.00
Neigh   | 0          | 0          | 0          |   0.0 |  0.00
Comm    | 0          | 0          | 0          |   0.0 |  0.00
Output  | 0          | 0          | 0          |   0.0 |  0.00
Modify  | 0          | 0          | 0          |   0.0 |  0.00
Other   |            | 5.83e-07   |            |       |100.00

Nlocal:              2 ave           2 max           2 min
Histogram: 1 0 0 0 0 0 0 0 0 0
Nghost:            430 ave         430 max         430 min
Histogram: 1 0 0 0 0 0 0 0 0 0
Neighs:            102 ave         102 max         102 min
Histogram: 1 0 0 0 0 0 0 0 0 0
FullNghs:          204 ave         204 max         204 min
Histogram: 1 0 0 0 0 0 0 0 0 0

Total # of neighbors = 204
Ave neighs/atom = 102
Neighbor list builds = 0
Dangerous builds = 0
set atom * x 0.0 y 0.0 z 0.0
Setting atom values ...
  2 settings made for x
  2 settings made for y
  2 settings made for z
change_box all     x final 0 3.8632275527712294 y final 0 3.323235093868349 z final 0 3.159458543894613      xy final 1.9699329012361333 xz final 1.931542062490074 yz final 1.1004271900218443 units box
Changing box ...
  triclinic box = (0 0 0) to (3.8632276 3.3232351 3.1594585) with tilt (1.9699329 1.9315421 1.1004272)
  triclinic box = (0 0 0) to (3.8632276 3.3232351 3.1594585) with tilt (1.9699329 1.9315421 1.1004272)
  triclinic box = (0 0 0) to (3.8632276 3.3232351 3.1594585) with tilt (1.9699329 1.9315421 1.1004272)
  triclinic box = (0 0 0) to (3.8632276 3.3232351 3.1594585) with tilt (1.9699329 1.9315421 1.1004272)
  triclinic box = (0 0 0) to (3.8632276 3.3232351 3.1594585) with tilt (1.9699329 1.9315421 1.1004272)
  triclinic box = (0 0 0) to (3.8632276 3.3232351 3.1594585) with tilt (1.9699329 1.9315421 1.1004272)
echo none
run 0
Per MPI rank memory allocation (min/avg/max) = 3.623 | 3.623 | 3.623 Mbytes
    PotEng          Pxx           E_mol          E_coul    
-326.35363      1479.3588      0              0            
Loop time of 6.03e-07 on 1 procs for 0 steps with 2 atoms

331.7% CPU use with 1 MPI tasks x 1 OpenMP threads

MPI task timing breakdown:
Section |  min time  |  avg time  |  max time  |%varavg| %total
---------------------------------------------------------------
Pair    | 0          | 0          | 0          |   0.0 |  0.00
Neigh   | 0          | 0          | 0          |   0.0 |  0.00
Comm    | 0          | 0          | 0          |   0.0 |  0.00
Output  | 0          | 0          | 0          |   0.0 |  0.00
Modify  | 0          | 0          | 0          |   0.0 |  0.00
Other   |            | 6.03e-07   |            |       |100.00

Nlocal:              2 ave           2 max           2 min
Histogram: 1 0 0 0 0 0 0 0 0 0
Nghost:            430 ave         430 max         430 min
Histogram: 1 0 0 0 0 0 0 0 0 0
Neighs:             98 ave          98 max          98 min
Histogram: 1 0 0 0 0 0 0 0 0 0
FullNghs:          196 ave         196 max         196 min
Histogram: 1 0 0 0 0 0 0 0 0 0

Total # of neighbors = 196
Ave neighs/atom = 98
Neighbor list builds = 0
Dangerous builds = 0
set atom * x 0.0 y 0.0 z 0.0
Setting atom values ...
  2 settings made for x
  2 settings made for y
  2 settings made for z
change_box all     x final 0 3.8826609493085935 y final 0 3.317202192362439 z final 0 3.1803054163593854      xy final 2.017727846433145 xz final 1.9410450548344502 yz final 1.0912567178654338 units box
Changing box ...
  triclinic box = (0 0 0) to (3.8826609 3.3232351 3.1594585) with tilt (1.9699329 1.9315421 1.1004272)
  triclinic box = (0 0 0) to (3.8826609 3.3172022 3.1594585) with tilt (1.9699329 1.9315421 1.1004272)
  triclinic box = (0 0 0) to (3.8826609 3.3172022 3.1803054) with tilt (1.9699329 1.9315421 1.1004272)
  triclinic box = (0 0 0) to (3.8826609 3.3172022 3.1803054) with tilt (2.0177278 1.9315421 1.1004272)
  triclinic box = (0 0 0) to (3.8826609 3.3172022 3.1803054) with tilt (2.0177278 1.9410451 1.1004272)
  triclinic box = (0 0 0) to (3.8826609 3.3172022 3.1803054) with tilt (2.0177278 1.9410451 1.0912567)
echo none
run 0
Per MPI rank memory allocation (min/avg/max) = 3.623 | 3.623 | 3.623 Mbytes
    PotEng          Pxx           E_mol          E_coul    
-326.34681     -8584.1805      0              0            
Loop time of 6.29e-07 on 1 procs for 0 steps with 2 atoms

159.0% CPU use with 1 MPI tasks x 1 OpenMP threads

MPI task timing breakdown:
Section |  min time  |  avg time  |  max time  |%varavg| %total
---------------------------------------------------------------
Pair    | 0          | 0          | 0          |   0.0 |  0.00
Neigh   | 0          | 0          | 0          |   0.0 |  0.00
Comm    | 0          | 0          | 0          |   0.0 |  0.00
Output  | 0          | 0          | 0          |   0.0 |  0.00
Modify  | 0          | 0          | 0          |   0.0 |  0.00
Other   |            | 6.29e-07   |            |       |100.00

Nlocal:              2 ave           2 max           2 min
Histogram: 1 0 0 0 0 0 0 0 0 0
Nghost:            430 ave         430 max         430 min
Histogram: 1 0 0 0 0 0 0 0 0 0
Neighs:            102 ave         102 max         102 min
Histogram: 1 0 0 0 0 0 0 0 0 0
FullNghs:          204 ave         204 max         204 min
Histogram: 1 0 0 0 0 0 0 0 0 0

Total # of neighbors = 204
Ave neighs/atom = 102
Neighbor list builds = 0
Dangerous builds = 0
set atom * x 0.0 y 0.0 z 0.0
Setting atom values ...
  2 settings made for x
  2 settings made for y
  2 settings made for z
change_box all     x final 0 3.8826609493085935 y final 0 3.317202192362439 z final 0 3.1803054163593854      xy final 2.017727846433145 xz final 1.9410450548344502 yz final 1.0912567178654338 units box
Changing box ...
  triclinic box = (0 0 0) to (3.8826609 3.3172022 3.1803054) with tilt (2.0177278 1.9410451 1.0912567)
  triclinic box = (0 0 0) to (3.8826609 3.3172022 3.1803054) with tilt (2.0177278 1.9410451 1.0912567)
  triclinic box = (0 0 0) to (3.8826609 3.3172022 3.1803054) with tilt (2.0177278 1.9410451 1.0912567)
  triclinic box = (0 0 0) to (3.8826609 3.3172022 3.1803054) with tilt (2.0177278 1.9410451 1.0912567)
  triclinic box = (0 0 0) to (3.8826609 3.3172022 3.1803054) with tilt (2.0177278 1.9410451 1.0912567)
  triclinic box = (0 0 0) to (3.8826609 3.3172022 3.1803054) with tilt (2.0177278 1.9410451 1.0912567)
echo none
run 0
Per MPI rank memory allocation (min/avg/max) = 3.623 | 3.623 | 3.623 Mbytes
    PotEng          Pxx           E_mol          E_coul    
-326.32172     -9091.3711      0              0            
Loop time of 6.56e-07 on 1 procs for 0 steps with 2 atoms

152.4% CPU use with 1 MPI tasks x 1 OpenMP threads

MPI task timing breakdown:
Section |  min time  |  avg time  |  max time  |%varavg| %total
---------------------------------------------------------------
Pair    | 0          | 0          | 0          |   0.0 |  0.00
Neigh   | 0          | 0          | 0          |   0.0 |  0.00
Comm    | 0          | 0          | 0          |   0.0 |  0.00
Output  | 0          | 0          | 0          |   0.0 |  0.00
Modify  | 0          | 0          | 0          |   0.0 |  0.00
Other   |            | 6.56e-07   |            |       |100.00

Nlocal:              2 ave           2 max           2 min
Histogram: 1 0 0 0 0 0 0 0 0 0
Nghost:            430 ave         430 max         430 min
Histogram: 1 0 0 0 0 0 0 0 0 0
Neighs:            102 ave         102 max         102 min
Histogram: 1 0 0 0 0 0 0 0 0 0
FullNghs:          204 ave         204 max         204 min
Histogram: 1 0 0 0 0 0 0 0 0 0

Total # of neighbors = 204
Ave neighs/atom = 102
Neighbor list builds = 0
Dangerous builds = 0
set atom * x 0.0 y 0.0 z 0.0
Setting atom values ...
  2 settings made for x
  2 settings made for y
  2 settings made for z
change_box all     x final 0 3.8826609493085935 y final 0 3.317202192362439 z final 0 3.1803054163593854      xy final 2.017727846433145 xz final 1.9410450548344502 yz final 1.0912567178654338 units box
Changing box ...
  triclinic box = (0 0 0) to (3.8826609 3.3172022 3.1803054) with tilt (2.0177278 1.9410451 1.0912567)
  triclinic box = (0 0 0) to (3.8826609 3.3172022 3.1803054) with tilt (2.0177278 1.9410451 1.0912567)
  triclinic box = (0 0 0) to (3.8826609 3.3172022 3.1803054) with tilt (2.0177278 1.9410451 1.0912567)
  triclinic box = (0 0 0) to (3.8826609 3.3172022 3.1803054) with tilt (2.0177278 1.9410451 1.0912567)
  triclinic box = (0 0 0) to (3.8826609 3.3172022 3.1803054) with tilt (2.0177278 1.9410451 1.0912567)
  triclinic box = (0 0 0) to (3.8826609 3.3172022 3.1803054) with tilt (2.0177278 1.9410451 1.0912567)
echo none
run 0
Per MPI rank memory allocation (min/avg/max) = 3.623 | 3.623 | 3.623 Mbytes
    PotEng          Pxx           E_mol          E_coul    
-326.34812     -8981.7401      0              0            
Loop time of 6.43e-07 on 1 procs for 0 steps with 2 atoms

155.5% CPU use with 1 MPI tasks x 1 OpenMP threads

MPI task timing breakdown:
Section |  min time  |  avg time  |  max time  |%varavg| %total
---------------------------------------------------------------
Pair    | 0          | 0          | 0          |   0.0 |  0.00
Neigh   | 0          | 0          | 0          |   0.0 |  0.00
Comm    | 0          | 0          | 0          |   0.0 |  0.00
Output  | 0          | 0          | 0          |   0.0 |  0.00
Modify  | 0          | 0          | 0          |   0.0 |  0.00
Other   |            | 6.43e-07   |            |       |100.00

Nlocal:              2 ave           2 max           2 min
Histogram: 1 0 0 0 0 0 0 0 0 0
Nghost:            430 ave         430 max         430 min
Histogram: 1 0 0 0 0 0 0 0 0 0
Neighs:            102 ave         102 max         102 min
Histogram: 1 0 0 0 0 0 0 0 0 0
FullNghs:          204 ave         204 max         204 min
Histogram: 1 0 0 0 0 0 0 0 0 0

Total # of neighbors = 204
Ave neighs/atom = 102
Neighbor list builds = 0
Dangerous builds = 0
Total wall time: 0:00:13
