2
Lattice="2.805813044058917 -8.105517497819703e-17 2.805813044058917 2.805813044058917 2.805813044058917 -8.2195890665822e-17 -1.1169709963727935e-17 2.805813044058917 2.805813044058917" Properties=species:S:1:pos:R:3:forces:R:3 n_minim_iter=1 energy=-326.2857958474203 stress="0.037439566922780367 -3.00522208685245e-16 -1.971883663879189e-16 -3.00522208685245e-16 0.03743956692278053 1.6312864950156967e-16 -1.971883663879189e-16 1.6312864950156967e-16 0.03743956692278021" free_energy=-326.2857958474203 pbc="T T T"
Si       0.00000000      -0.00000000      -0.00000000       0.00000000      -0.00000000      -0.00000000
Si       1.40290652       1.40290652       1.40290652      -0.00000000       0.00000000       0.00000000
