2
Lattice="2.599743608660401 -7.510217886562563e-17 2.599743608660401 2.599743608660401 2.599743608660401 -7.615911611398611e-17 -1.0349364563073274e-17 2.599743608660401 2.599743608660401" Properties=species:S:1:pos:R:3:forces:R:3 n_minim_iter=1 energy=-326.0826488058426 stress="-0.11137123752119236 3.4887219821025445e-16 -9.97008577474173e-16 3.4887219821025445e-16 -0.11137123752119255 3.9301626468958023e-16 -9.97008577474173e-16 3.9301626468958023e-16 -0.11137123752119282" free_energy=-326.0826488058426 pbc="T T T"
Si       0.00000000      -0.00000000      -0.00000000      -0.00000000       0.00000000       0.00000000
Si       1.29987180       1.29987180       1.29987180       0.00000000      -0.00000000      -0.00000000
