2
Lattice="2.6483481653894207 -7.650628198602074e-17 2.6483481653894207 2.6483481653894207 2.6483481653894207 -7.7582979631628e-17 -1.0542855288596937e-17 2.6483481653894207 2.6483481653894207" Properties=species:S:1:pos:R:3:forces:R:3 n_minim_iter=1 energy=-326.254233949296 stress="-0.06169234848782837 2.1874611622197233e-16 3.821318769460427e-16 2.1874611622197233e-16 -0.06169234848782914 2.6584725690147962e-17 3.821318769460427e-16 2.6584725690147962e-17 -0.06169234848782855" free_energy=-326.254233949296 pbc="T T T"
Si       0.00000000      -0.00000000      -0.00000000       0.00000000       0.00000000       0.00000000
Si       1.32417408       1.32417408       1.32417408      -0.00000000      -0.00000000       0.00000000
