2
Lattice="2.9279557289505873 -8.458366976410737e-17 2.9279557289505873 2.9279557289505873 2.9279557289505873 -8.577404309983532e-17 -1.165594990309944e-17 2.9279557289505873 2.9279557289505873" Properties=species:S:1:pos:R:3:forces:R:3 n_minim_iter=1 energy=-325.9400321729978 stress="0.0720590831044288 9.713988412068222e-17 -1.6555271892850335e-16 9.713988412068222e-17 0.07205908310442873 -1.8866833668952857e-16 -1.6555271892850335e-16 -1.8866833668952857e-16 0.07205908310442842" free_energy=-325.9400321729978 pbc="T T T"
Si       0.00000000      -0.00000000      -0.00000000       0.00000000      -0.00000000      -0.00000000
Si       1.46397786       1.46397786       1.46397786      -0.00000000       0.00000000       0.00000000
