2
Lattice="2.671995382385001 -7.718940993546934e-17 2.671995382385001 2.671995382385001 2.671995382385001 -7.827572146160677e-17 -1.0636992906158179e-17 2.671995382385001 2.671995382385001" Properties=species:S:1:pos:R:3:forces:R:3 n_minim_iter=1 energy=-326.33800133934943 stress="-0.023384488296669143 -4.695612285154909e-17 -2.906247352135214e-16 -4.695612285154909e-17 -0.023384488296668966 1.3395003753631497e-16 -2.906247352135214e-16 1.3395003753631497e-16 -0.023384488296668816" free_energy=-326.33800133934943 pbc="T T T"
Si       0.00000000      -0.00000000      -0.00000000      -0.00000000      -0.00000000      -0.00000000
Si       1.33599769       1.33599769       1.33599769       0.00000000       0.00000000       0.00000000
