2
Lattice="2.671995382385001 -7.718940993546935e-17 2.671995382385001 2.671995382385001 2.671995382385001 -7.827572146160678e-17 -1.063699290615818e-17 2.671995382385001 2.671995382385001" Properties=species:S:1:pos:R:3:forces:R:3 n_minim_iter=1 energy=-326.30572060439573 stress="-0.04130409580573828 -3.5168221165144325e-16 -5.042794691912357e-16 -3.5168221165144325e-16 -0.04130409580573798 -4.067600099035183e-17 -5.042794691912357e-16 -4.067600099035183e-17 -0.04130409580573837" free_energy=-326.30572060439573 pbc="T T T"
Si       0.00000000      -0.00000000      -0.00000000      -0.00000000      -0.00000000      -0.00000000
Si       1.33599769       1.33599769       1.33599769       0.00000000       0.00000000       0.00000000
