2
Lattice="2.847697025640827 -8.226513209315654e-17 2.847697025640827 2.847697025640827 2.847697025640827 -8.342287589851439e-17 -1.1336446634721273e-17 2.847697025640827 2.847697025640827" Properties=species:S:1:pos:R:3:forces:R:3 n_minim_iter=1 energy=-326.2440696260475 stress="0.04550238410787757 -3.805540510282092e-16 -4.7069655812741445e-17 -3.805540510282092e-16 0.045502384107877304 2.2190953582933413e-16 -4.7069655812741445e-17 2.2190953582933413e-16 0.045502384107877436" free_energy=-326.2440696260475 pbc="T T T"
Si       0.00000000      -0.00000000      -0.00000000       0.00000000       0.00000000      -0.00000000
Si       1.42384851       1.42384851       1.42384851      -0.00000000      -0.00000000       0.00000000
