2
Lattice="2.5232357573314954 -7.289199693999764e-17 2.5232357573314954 2.5232357573314954 2.5232357573314954 -7.39178295834301e-17 -1.0044793126604486e-17 2.5232357573314954 2.5232357573314954" Properties=species:S:1:pos:R:3:forces:R:3 n_minim_iter=1 energy=-325.7970225723049 stress="-0.1758758642523747 -4.1544248526738804e-17 3.374638768282067e-16 -4.1544248526738804e-17 -0.17587586425237592 2.1657418452307402e-16 3.374638768282067e-16 2.1657418452307402e-16 -0.1758758642523741" free_energy=-325.7970225723049 pbc="T T T"
Si       0.00000000      -0.00000000      -0.00000000       0.00000000       0.00000000       0.00000000
Si       1.26161788       1.26161788       1.26161788      -0.00000000      -0.00000000      -0.00000000
