2
Lattice="2.7180733233619225 -7.852052341661434e-17 2.7180733233619225 2.7180733233619225 2.7180733233619225 -7.962556813320334e-17 -1.0820425383075259e-17 2.7180733233619225 2.7180733233619225" Properties=species:S:1:pos:R:3:forces:R:3 n_minim_iter=2 energy=-326.3534203951742 stress="-0.0076842389631380055 -2.4442236294960383e-16 -2.883894807600698e-16 -2.4442236294960383e-16 -0.0076842389631379985 -1.6460475382837487e-16 -2.883894807600698e-16 -1.6460475382837487e-16 -0.007684238963138061" free_energy=-326.3534203951742 pbc="T T T"
Si      -0.00000000      -0.00000000      -0.00000000      -0.00000000      -0.00000000      -0.00000000
Si       1.35903666       1.35903666       1.35903666       0.00000000       0.00000000       0.00000000
