2
Lattice="2.6483481653894207 -7.650628198602074e-17 2.6483481653894207 2.6483481653894207 2.6483481653894207 -7.7582979631628e-17 -1.0542855288596937e-17 2.6483481653894207 2.6483481653894207" Properties=species:S:1:pos:R:3:forces:R:3 n_minim_iter=1 energy=-326.30572060439573 stress="-0.04130409580573828 -3.5168221165144325e-16 -5.042794691912357e-16 -3.5168221165144325e-16 -0.04130409580573798 -4.067600099035183e-17 -5.042794691912357e-16 -4.067600099035183e-17 -0.04130409580573837" free_energy=-326.30572060439573 pbc="T T T"
Si       0.00000000      -0.00000000      -0.00000000      -0.00000000      -0.00000000      -0.00000000
Si       1.32417408       1.32417408       1.32417408       0.00000000       0.00000000       0.00000000
