2
Lattice="2.847697025640827 -8.226513209315654e-17 2.847697025640827 2.847697025640827 2.847697025640827 -8.34228758985144e-17 -1.1336446634721273e-17 2.847697025640827 2.847697025640827" Properties=species:S:1:pos:R:3:forces:R:3 n_minim_iter=1 energy=-326.1947556202149 stress="0.052569423331177624 3.187153185002354e-16 -1.2581735320209222e-16 3.187153185002354e-16 0.05256942333117788 -1.8526139435989733e-16 -1.2581735320209222e-16 -1.8526139435989733e-16 0.05256942333117747" free_energy=-326.1947556202149 pbc="T T T"
Si       0.00000000      -0.00000000      -0.00000000       0.00000000      -0.00000000       0.00000000
Si       1.42384851       1.42384851       1.42384851      -0.00000000       0.00000000      -0.00000000
