2
Lattice="2.549250330998245 -7.364351380424716e-17 2.549250330998245 2.549250330998245 2.549250330998245 -7.467992278752215e-17 -1.0148354995526186e-17 2.549250330998245 2.549250330998245" Properties=species:S:1:pos:R:3:forces:R:3 n_minim_iter=1 energy=-325.7970225723049 stress="-0.1758758642523747 -4.1544248526738804e-17 3.374638768282067e-16 -4.1544248526738804e-17 -0.17587586425237592 2.1657418452307402e-16 3.374638768282067e-16 2.1657418452307402e-16 -0.1758758642523741" free_energy=-325.7970225723049 pbc="T T T"
Si       0.00000000      -0.00000000      -0.00000000       0.00000000       0.00000000       0.00000000
Si       1.27462517       1.27462517       1.27462517      -0.00000000      -0.00000000      -0.00000000
