2
Lattice="2.5232357573314954 -7.289199693999764e-17 2.5232357573314954 2.5232357573314954 2.5232357573314954 -7.39178295834301e-17 -1.004479312660449e-17 2.5232357573314954 2.5232357573314954" Properties=species:S:1:pos:R:3:forces:R:3 n_minim_iter=1 energy=-325.60126352846476 stress="-0.21491009865005356 -5.977015714805357e-16 -4.64272867422799e-16 -5.977015714805357e-16 -0.2149100986500541 8.18493923040831e-16 -4.64272867422799e-16 8.18493923040831e-16 -0.2149100986500539" free_energy=-325.60126352846476 pbc="T T T"
Si       0.00000000      -0.00000000      -0.00000000      -0.00000000       0.00000000       0.00000000
Si       1.26161788       1.26161788       1.26161788       0.00000000      -0.00000000      -0.00000000
