2
Lattice="2.549250330998245 -7.364351380424716e-17 2.549250330998245 2.549250330998245 2.549250330998245 -7.467992278752215e-17 -1.0148354995526186e-17 2.549250330998245 2.549250330998245" Properties=species:S:1:pos:R:3:forces:R:3 n_minim_iter=1 energy=-325.9560078277863 stress="-0.14154522994509763 -6.041454209570487e-16 5.823163372383737e-17 -6.041454209570487e-16 -0.14154522994509824 3.868153335911258e-16 5.823163372383737e-17 3.868153335911258e-16 -0.14154522994509777" free_energy=-325.9560078277863 pbc="T T T"
Si       0.00000000      -0.00000000      -0.00000000      -0.00000000      -0.00000000      -0.00000000
Si       1.27462517       1.27462517       1.27462517       0.00000000       0.00000000       0.00000000
