2
Lattice="2.574744525563095 -7.437999779977125e-17 2.574744525563095 2.574744525563095 2.574744525563095 -7.542677156046611e-17 -1.0249845278227376e-17 2.574744525563095 2.574744525563095" Properties=species:S:1:pos:R:3:forces:R:3 n_minim_iter=1 energy=-326.0826488058426 stress="-0.11137123752119236 3.4887219821025445e-16 -9.97008577474173e-16 3.4887219821025445e-16 -0.11137123752119255 3.9301626468958023e-16 -9.97008577474173e-16 3.9301626468958023e-16 -0.11137123752119282" free_energy=-326.0826488058426 pbc="T T T"
Si       0.00000000      -0.00000000      -0.00000000      -0.00000000       0.00000000       0.00000000
Si       1.28737226       1.28737226       1.28737226       0.00000000      -0.00000000      -0.00000000
