2
Lattice="2.496673408296977 -7.212465577541661e-17 2.496673408296977 2.496673408296977 2.496673408296977 -7.313968937851101e-17 -9.93905060919083e-18 2.496673408296977 2.496673408296977" Properties=species:S:1:pos:R:3:forces:R:3 n_minim_iter=1 energy=-325.36355758946826 stress="-0.25968163289763935 -1.787788769693029e-16 2.8729464245596134e-18 -1.787788769693029e-16 -0.2596816328976391 -3.480114108728984e-16 2.8729464245596134e-18 -3.480114108728984e-16 -0.259681632897639" free_energy=-325.36355758946826 pbc="T T T"
Si       0.00000000      -0.00000000      -0.00000000      -0.00000000      -0.00000000       0.00000000
Si       1.24833670       1.24833670       1.24833670       0.00000000       0.00000000       0.00000000
