2
Lattice="2.888383908737205 -8.34405070653691e-17 2.888383908737205 2.888383908737205 2.888383908737205 -8.461479230278242e-17 -1.1498417755525967e-17 2.888383908737205 2.888383908737205" Properties=species:S:1:pos:R:3:forces:R:3 n_minim_iter=1 energy=-326.1388140837348 stress="0.05871329463170732 -2.124170422862236e-16 6.554321468581426e-17 -2.124170422862236e-16 0.05871329463170708 -7.46258058555074e-17 6.554321468581426e-17 -7.46258058555074e-17 0.058713294631707075" free_energy=-326.1388140837348 pbc="T T T"
Si       0.00000000      -0.00000000      -0.00000000      -0.00000000      -0.00000000       0.00000000
Si       1.44419195       1.44419195       1.44419195       0.00000000       0.00000000      -0.00000000
