2
Lattice="2.826910174897031 -8.166463526823384e-17 2.826910174897031 2.826910174897031 2.826910174897031 -8.281392808759676e-17 -1.1253695898937525e-17 2.826910174897031 2.826910174897031" Properties=species:S:1:pos:R:3:forces:R:3 n_minim_iter=1 energy=-326.2857958474203 stress="0.037439566922780367 -3.00522208685245e-16 -1.971883663879189e-16 -3.00522208685245e-16 0.03743956692278053 1.6312864950156967e-16 -1.971883663879189e-16 1.6312864950156967e-16 0.03743956692278021" free_energy=-326.2857958474203 pbc="T T T"
Si       0.00000000      -0.00000000      -0.00000000       0.00000000      -0.00000000      -0.00000000
Si       1.41345509       1.41345509       1.41345509      -0.00000000       0.00000000       0.00000000
