2
Lattice="2.599743608660401 -7.510217886562563e-17 2.599743608660401 2.599743608660401 2.599743608660401 -7.61591161139861e-17 -1.0349364563073274e-17 2.599743608660401 2.599743608660401" Properties=species:S:1:pos:R:3:forces:R:3 n_minim_iter=1 energy=-326.1808924550995 stress="-0.0849045728636562 3.817311826038447e-16 -2.8513672749668494e-16 3.817311826038447e-16 -0.08490457286365571 -1.9624060449705076e-16 -2.8513672749668494e-16 -1.9624060449705076e-16 -0.0849045728636564" free_energy=-326.1808924550995 pbc="T T T"
Si       0.00000000      -0.00000000      -0.00000000      -0.00000000       0.00000000      -0.00000000
Si       1.29987180       1.29987180       1.29987180       0.00000000      -0.00000000       0.00000000
