2
Lattice="2.868184759014142 -8.285698792510406e-17 2.868184759014142 2.868184759014142 2.868184759014142 -8.402306110896856e-17 -1.141800660896071e-17 2.868184759014142 2.868184759014142" Properties=species:S:1:pos:R:3:forces:R:3 n_minim_iter=1 energy=-326.1388140837348 stress="0.05871329463170732 -2.124170422862236e-16 6.554321468581426e-17 -2.124170422862236e-16 0.05871329463170708 -7.46258058555074e-17 6.554321468581426e-17 -7.46258058555074e-17 0.058713294631707075" free_energy=-326.1388140837348 pbc="T T T"
Si       0.00000000      -0.00000000      -0.00000000      -0.00000000      -0.00000000       0.00000000
Si       1.43409238       1.43409238       1.43409238       0.00000000       0.00000000      -0.00000000
