2
Lattice="2.6242709402856814 -7.581073183241896e-17 2.6242709402856814 2.6242709402856814 2.6242709402856814 -7.687764077580016e-17 -1.0447005844276472e-17 2.6242709402856814 2.6242709402856814" Properties=species:S:1:pos:R:3:forces:R:3 n_minim_iter=1 energy=-326.1808924550995 stress="-0.0849045728636562 3.817311826038447e-16 -2.8513672749668494e-16 3.817311826038447e-16 -0.08490457286365571 -1.9624060449705076e-16 -2.8513672749668494e-16 -1.9624060449705076e-16 -0.0849045728636564" free_energy=-326.1808924550995 pbc="T T T"
Si       0.00000000      -0.00000000      -0.00000000      -0.00000000       0.00000000      -0.00000000
Si       1.31213547       1.31213547       1.31213547       0.00000000      -0.00000000       0.00000000
