2
Lattice="2.7626398234206984 -7.980797393584219e-17 2.7626398234206984 2.7626398234206984 2.7626398234206984 -8.093113735990074e-17 -1.0997840938544656e-17 2.7626398234206984 2.7626398234206984" Properties=species:S:1:pos:R:3:forces:R:3 n_minim_iter=1 energy=-326.3421116815296 stress="0.017781743577148325 1.3330215880051288e-16 -5.734262191243585e-18 1.3330215880051288e-16 0.017781743577148148 -3.5643406070026987e-16 -5.734262191243585e-18 -3.5643406070026987e-16 0.017781743577148023" free_energy=-326.3421116815296 pbc="T T T"
Si       0.00000000      -0.00000000      -0.00000000      -0.00000000      -0.00000000      -0.00000000
Si       1.38131991       1.38131991       1.38131991       0.00000000       0.00000000       0.00000000
