2
Lattice="2.826910174897031 -8.166463526823384e-17 2.826910174897031 2.826910174897031 2.826910174897031 -8.281392808759676e-17 -1.1253695898937528e-17 2.826910174897031 2.826910174897031" Properties=species:S:1:pos:R:3:forces:R:3 n_minim_iter=1 energy=-326.2440696260475 stress="0.04550238410787757 -3.805540510282092e-16 -4.7069655812741445e-17 -3.805540510282092e-16 0.045502384107877304 2.2190953582933413e-16 -4.7069655812741445e-17 2.2190953582933413e-16 0.045502384107877436" free_energy=-326.2440696260475 pbc="T T T"
Si       0.00000000      -0.00000000      -0.00000000       0.00000000       0.00000000      -0.00000000
Si       1.41345509       1.41345509       1.41345509      -0.00000000      -0.00000000       0.00000000
