2
Lattice="2.908304427255176 -8.40159770231945e-17 2.908304427255176 2.908304427255176 2.908304427255176 -8.519836103540938e-17 -1.1577719694279137e-17 2.908304427255176 2.908304427255176" Properties=species:S:1:pos:R:3:forces:R:3 n_minim_iter=1 energy=-326.07714726386325 stress="0.06398057661505634 -1.1060515222323315e-16 1.9160446951094423e-16 -1.1060515222323315e-16 0.06398057661505616 -9.169596664431984e-17 1.9160446951094423e-16 -9.169596664431984e-17 0.06398057661505628" free_energy=-326.07714726386325 pbc="T T T"
Si       0.00000000      -0.00000000      -0.00000000      -0.00000000      -0.00000000      -0.00000000
Si       1.45415221       1.45415221       1.45415221       0.00000000       0.00000000       0.00000000
