2
Lattice="2.908304427255176 -8.401597702319449e-17 2.908304427255176 2.908304427255176 2.908304427255176 -8.519836103540937e-17 -1.1577719694279135e-17 2.908304427255176 2.908304427255176" Properties=species:S:1:pos:R:3:forces:R:3 n_minim_iter=1 energy=-326.0106150226861 stress="0.06841219125672321 5.4102827986600865e-17 1.453052302020911e-16 5.4102827986600865e-17 0.06841219125672311 -7.264450084454611e-17 1.453052302020911e-16 -7.264450084454611e-17 0.06841219125672307" free_energy=-326.0106150226861 pbc="T T T"
Si       0.00000000      -0.00000000      -0.00000000       0.00000000      -0.00000000      -0.00000000
Si       1.45415221       1.45415221       1.45415221      -0.00000000       0.00000000       0.00000000
