2
Lattice="2.805813044058917 -8.105517497819703e-17 2.805813044058917 2.805813044058917 2.805813044058917 -8.219589066582198e-17 -1.1169709963727935e-17 2.805813044058917 2.805813044058917" Properties=species:S:1:pos:R:3:forces:R:3 n_minim_iter=1 energy=-326.3188789445901 stress="0.02826077331134968 -2.394223515072616e-16 -2.0317349941682816e-16 -2.394223515072616e-16 0.028260773311349574 8.055851862597094e-17 -2.0317349941682816e-16 8.055851862597094e-17 0.028260773311349584" free_energy=-326.3188789445901 pbc="T T T"
Si       0.00000000      -0.00000000      -0.00000000      -0.00000000      -0.00000000      -0.00000000
Si       1.40290652       1.40290652       1.40290652       0.00000000       0.00000000       0.00000000
