2
Lattice="2.868184759014142 -8.285698792510407e-17 2.868184759014142 2.868184759014142 2.868184759014142 -8.402306110896856e-17 -1.141800660896071e-17 2.868184759014142 2.868184759014142" Properties=species:S:1:pos:R:3:forces:R:3 n_minim_iter=1 energy=-326.1947556202149 stress="0.052569423331177624 3.187153185002354e-16 -1.2581735320209222e-16 3.187153185002354e-16 0.05256942333117788 -1.8526139435989733e-16 -1.2581735320209222e-16 -1.8526139435989733e-16 0.05256942333117747" free_energy=-326.1947556202149 pbc="T T T"
Si       0.00000000      -0.00000000      -0.00000000       0.00000000      -0.00000000       0.00000000
Si       1.43409238       1.43409238       1.43409238      -0.00000000       0.00000000      -0.00000000
