2
Lattice="2.6952312911332577 -7.786065588799465e-17 2.6952312911332577 2.6952312911332577 2.6952312911332577 -7.895641407547735e-17 -1.072949313956155e-17 2.6952312911332577 2.6952312911332577" Properties=species:S:1:pos:R:3:forces:R:3 n_minim_iter=1 energy=-326.3534203951742 stress="-0.0076842389631380055 -2.4442236294960383e-16 -2.883894807600698e-16 -2.4442236294960383e-16 -0.0076842389631379985 -1.6460475382837487e-16 -2.883894807600698e-16 -1.6460475382837487e-16 -0.007684238963138061" free_energy=-326.3534203951742 pbc="T T T"
Si       0.00000000      -0.00000000      -0.00000000      -0.00000000      -0.00000000      -0.00000000
Si       1.34761565       1.34761565       1.34761565       0.00000000       0.00000000       0.00000000
