2
Lattice="2.7405377579890056 -7.916948279163043e-17 2.7405377579890056 2.7405377579890056 2.7405377579890056 -8.028366052335277e-17 -1.0909854441727242e-17 2.7405377579890056 2.7405377579890056" Properties=species:S:1:pos:R:3:forces:R:3 n_minim_iter=1 energy=-326.35412499557367 stress="0.00594285780498632 1.6324264849516779e-16 4.1328366350934725e-16 1.6324264849516779e-16 0.005942857804986411 7.32026260173408e-17 4.1328366350934725e-16 7.32026260173408e-17 0.00594285780498663" free_energy=-326.35412499557367 pbc="T T T"
Si       0.00000000      -0.00000000      -0.00000000       0.00000000      -0.00000000       0.00000000
Si       1.37026888       1.37026888       1.37026888      -0.00000000       0.00000000      -0.00000000
