2
Lattice="2.496673408296977 -7.212465577541661e-17 2.496673408296977 2.496673408296977 2.496673408296977 -7.313968937851101e-17 -9.93905060919083e-18 2.496673408296977 2.496673408296977" Properties=species:S:1:pos:R:3:forces:R:3 n_minim_iter=1 energy=-325.60126352846476 stress="-0.21491009865005356 -5.977015714805357e-16 -4.64272867422799e-16 -5.977015714805357e-16 -0.2149100986500541 8.18493923040831e-16 -4.64272867422799e-16 8.18493923040831e-16 -0.2149100986500539" free_energy=-325.60126352846476 pbc="T T T"
Si       0.00000000      -0.00000000      -0.00000000      -0.00000000       0.00000000       0.00000000
Si       1.24833670       1.24833670       1.24833670       0.00000000      -0.00000000      -0.00000000
