2
Lattice="2.6242709402856814 -7.581073183241896e-17 2.6242709402856814 2.6242709402856814 2.6242709402856814 -7.687764077580016e-17 -1.0447005844276472e-17 2.6242709402856814 2.6242709402856814" Properties=species:S:1:pos:R:3:forces:R:3 n_minim_iter=1 energy=-326.254233949296 stress="-0.06169234848782837 2.1874611622197233e-16 3.821318769460427e-16 2.1874611622197233e-16 -0.06169234848782914 2.6584725690147962e-17 3.821318769460427e-16 2.6584725690147962e-17 -0.06169234848782855" free_energy=-326.254233949296 pbc="T T T"
Si       0.00000000      -0.00000000      -0.00000000       0.00000000       0.00000000       0.00000000
Si       1.31213547       1.31213547       1.31213547      -0.00000000      -0.00000000       0.00000000
