2
Lattice="2.4695335043543203 -7.134063003014413e-17 2.4695335043543203 2.4695335043543203 2.4695335043543203 -7.234462978540125e-17 -9.831008893394833e-18 2.4695335043543203 2.4695335043543203" Properties=species:S:1:pos:R:3:forces:R:3 n_minim_iter=1 energy=-325.0771048225133 stress="-0.31259895789864856 9.343906338089329e-17 1.0317375525729858e-16 9.343906338089329e-17 -0.31259895789864856 -3.0513025899753584e-17 1.0317375525729858e-16 -3.0513025899753584e-17 -0.3125989578986484" free_energy=-325.0771048225133 pbc="T T T"
Si       0.00000000      -0.00000000      -0.00000000      -0.00000000      -0.00000000       0.00000000
Si       1.23476675       1.23476675       1.23476675       0.00000000       0.00000000      -0.00000000
