2
Lattice="2.4695335043543203 -7.134063003014414e-17 2.4695335043543203 2.4695335043543203 2.4695335043543203 -7.234462978540125e-17 -9.831008893394833e-18 2.4695335043543203 2.4695335043543203" Properties=species:S:1:pos:R:3:forces:R:3 n_minim_iter=1 energy=-325.36355758946826 stress="-0.25968163289763935 -1.787788769693029e-16 2.8729464245596134e-18 -1.787788769693029e-16 -0.2596816328976391 -3.480114108728984e-16 2.8729464245596134e-18 -3.480114108728984e-16 -0.259681632897639" free_energy=-325.36355758946826 pbc="T T T"
Si       0.00000000      -0.00000000      -0.00000000      -0.00000000      -0.00000000       0.00000000
Si       1.23476675       1.23476675       1.23476675       0.00000000       0.00000000       0.00000000
