LAMMPS (27 Jun 2024 - Development - patch_17Apr2024-1524-g5a286ff933-modified)
  using 1 OpenMP thread(s) per MPI task
units metal
atom_style atomic
atom_modify map array sort 0 0
boundary p p p
box tilt large

The 'box' command has been removed and will be ignored

region cell prism    0 4.114289999999999 0 4.407123979731001 0 15.871520000000002     -0.12335538002055951 -2.094464034596114e-31 9.994330125541032e-16     units box
create_box 1 cell
Created triclinic box = (0 0 0) to (4.11429 4.407124 15.87152) with tilt (-0.12335538 -2.094464e-31 9.9943301e-16)
  1 by 1 by 1 MPI processor grid
echo none
Created 14 atoms
  using lattice units in triclinic box = (0 0 0) to (4.11429 4.407124 15.87152) with tilt (-0.12335538 -2.094464e-31 9.9943301e-16)
  create_atoms CPU = 0.001 seconds
Setting atom values ...
  1 settings made for type
Setting atom values ...
  1 settings made for type
Setting atom values ...
  1 settings made for type
Setting atom values ...
  1 settings made for type
Setting atom values ...
  1 settings made for type
Setting atom values ...
  1 settings made for type
Setting atom values ...
  1 settings made for type
Setting atom values ...
  1 settings made for type
Setting atom values ...
  1 settings made for type
Setting atom values ...
  1 settings made for type
Setting atom values ...
  1 settings made for type
Setting atom values ...
  1 settings made for type
Setting atom values ...
  1 settings made for type
Setting atom values ...
  1 settings made for type
pair_style hybrid/overlay pace table spline 5000
ACE version: 2023.11.25
Recursive evaluator is used
pair_coeff * * pace /home/eng/phrffk/testing-framework/example_models/Si/models/Si_jl_ACE/0ce218cb3e.yace Si
Loading /home/eng/phrffk/testing-framework/example_models/Si/models/Si_jl_ACE/0ce218cb3e.yace
Total number of basis functions
	Si: 32 (r=1) 45284 (r>1)
Mapping LAMMPS atom type #1(Si) -> ACE species type #0
pair_coeff 1 1 table /home/eng/phrffk/testing-framework/example_models/Si/models/Si_jl_ACE/0ce218cb3e_pairpot.table Si_Si
Reading pair table potential file /home/eng/phrffk/testing-framework/example_models/Si/models/Si_jl_ACE/0ce218cb3e_pairpot.table with DATE: none
WARNING: 1 of 6000 force values in table Si_Si are inconsistent with -dE/dr.
WARNING:  Should only be flagged at inflection points (src/pair_table.cpp:473)
mass 1 28.084999992775294685998233035207
variable pxx equal pxx
variable pyy equal pyy
variable pzz equal pzz
variable pxy equal pxy
variable pxz equal pxz
variable pyz equal pyz
thermo_style custom pe pxx emol ecoul
variable fx atom fx
variable fy atom fy
variable fz atom fz
variable pe equal pe
neigh_modify delay 0 every 1 check yes
echo none
run 0
WARNING: No fixes with time integration, atoms won't move (src/verlet.cpp:60)
Neighbor list info ...
  update: every = 1 steps, delay = 0 steps, check = yes
  max neighbors/atom: 2000, page size: 100000
  master list distance cutoff = 8
  ghost atom cutoff = 8
  binsize = 4, bins = 2 2 4
  2 neighbor lists, perpetual/occasional/extra = 2 0 0
  (1) pair pace, perpetual
      attributes: full, newton on
      pair build: full/bin/atomonly
      stencil: full/bin/3d
      bin: standard
  (2) pair table, perpetual, half/full from (1)
      attributes: half, newton on
      pair build: halffull/newton/tri
      stencil: none
      bin: none
Per MPI rank memory allocation (min/avg/max) = 3.6 | 3.6 | 3.6 Mbytes
    PotEng          Pxx           E_mol          E_coul    
-2201.6998      1360618.5      0              0            
Loop time of 8.71e-07 on 1 procs for 0 steps with 14 atoms

344.4% CPU use with 1 MPI tasks x 1 OpenMP threads

MPI task timing breakdown:
Section |  min time  |  avg time  |  max time  |%varavg| %total
---------------------------------------------------------------
Pair    | 0          | 0          | 0          |   0.0 |  0.00
Neigh   | 0          | 0          | 0          |   0.0 |  0.00
Comm    | 0          | 0          | 0          |   0.0 |  0.00
Output  | 0          | 0          | 0          |   0.0 |  0.00
Modify  | 0          | 0          | 0          |   0.0 |  0.00
Other   |            | 8.71e-07   |            |       |100.00

Nlocal:             14 ave          14 max          14 min
Histogram: 1 0 0 0 0 0 0 0 0 0
Nghost:            686 ave         686 max         686 min
Histogram: 1 0 0 0 0 0 0 0 0 0
Neighs:            712 ave         712 max         712 min
Histogram: 1 0 0 0 0 0 0 0 0 0
FullNghs:         1424 ave        1424 max        1424 min
Histogram: 1 0 0 0 0 0 0 0 0 0

Total # of neighbors = 1424
Ave neighs/atom = 101.71429
Neighbor list builds = 0
Dangerous builds = 0
set atom * x 0.0 y 0.0 z 0.0
Setting atom values ...
  14 settings made for x
  14 settings made for y
  14 settings made for z
change_box all     x final 0 4.216080532458291 y final 0 4.417787740014895 z final 0 16.133159932386107      xy final -0.1263929621502787 xz final 1.0087472069059918e-30 yz final 3.807148434775616e-29 units box
Changing box ...
  triclinic box = (0 0 0) to (4.2160805 4.407124 15.87152) with tilt (-0.12335538 -2.094464e-31 9.9943301e-16)
  triclinic box = (0 0 0) to (4.2160805 4.4177877 15.87152) with tilt (-0.12335538 -2.094464e-31 9.9943301e-16)
  triclinic box = (0 0 0) to (4.2160805 4.4177877 16.13316) with tilt (-0.12335538 -2.094464e-31 9.9943301e-16)
  triclinic box = (0 0 0) to (4.2160805 4.4177877 16.13316) with tilt (-0.12639296 -2.094464e-31 9.9943301e-16)
  triclinic box = (0 0 0) to (4.2160805 4.4177877 16.13316) with tilt (-0.12639296 1.0087472e-30 9.9943301e-16)
  triclinic box = (0 0 0) to (4.2160805 4.4177877 16.13316) with tilt (-0.12639296 1.0087472e-30 3.8071484e-29)
echo none
run 0
WARNING: No fixes with time integration, atoms won't move (src/verlet.cpp:60)
Per MPI rank memory allocation (min/avg/max) = 3.6 | 3.6 | 3.6 Mbytes
    PotEng          Pxx           E_mol          E_coul    
-2211.6035      1300593.8      0              0            
Loop time of 6.83e-07 on 1 procs for 0 steps with 14 atoms

146.4% CPU use with 1 MPI tasks x 1 OpenMP threads

MPI task timing breakdown:
Section |  min time  |  avg time  |  max time  |%varavg| %total
---------------------------------------------------------------
Pair    | 0          | 0          | 0          |   0.0 |  0.00
Neigh   | 0          | 0          | 0          |   0.0 |  0.00
Comm    | 0          | 0          | 0          |   0.0 |  0.00
Output  | 0          | 0          | 0          |   0.0 |  0.00
Modify  | 0          | 0          | 0          |   0.0 |  0.00
Other   |            | 6.83e-07   |            |       |100.00

Nlocal:             14 ave          14 max          14 min
Histogram: 1 0 0 0 0 0 0 0 0 0
Nghost:            626 ave         626 max         626 min
Histogram: 1 0 0 0 0 0 0 0 0 0
Neighs:            668 ave         668 max         668 min
Histogram: 1 0 0 0 0 0 0 0 0 0
FullNghs:         1336 ave        1336 max        1336 min
Histogram: 1 0 0 0 0 0 0 0 0 0

Total # of neighbors = 1336
Ave neighs/atom = 95.428571
Neighbor list builds = 0
Dangerous builds = 0
set atom * x 0.0 y 0.0 z 0.0
Setting atom values ...
  14 settings made for x
  14 settings made for y
  14 settings made for z
change_box all     x final 0 5.167996154848709 y final 0 4.482394532387967 z final 0 18.342097199561895      xy final -0.14733845735868947 xz final -1.6247104644516007e-29 yz final -5.515584176812164e-28 units box
Changing box ...
  triclinic box = (0 0 0) to (5.1679962 4.4177877 16.13316) with tilt (-0.12639296 1.0087472e-30 3.8071484e-29)
  triclinic box = (0 0 0) to (5.1679962 4.4823945 16.13316) with tilt (-0.12639296 1.0087472e-30 3.8071484e-29)
  triclinic box = (0 0 0) to (5.1679962 4.4823945 18.342097) with tilt (-0.12639296 1.0087472e-30 3.8071484e-29)
  triclinic box = (0 0 0) to (5.1679962 4.4823945 18.342097) with tilt (-0.14733846 1.0087472e-30 3.8071484e-29)
  triclinic box = (0 0 0) to (5.1679962 4.4823945 18.342097) with tilt (-0.14733846 -1.6247105e-29 3.8071484e-29)
  triclinic box = (0 0 0) to (5.1679962 4.4823945 18.342097) with tilt (-0.14733846 -1.6247105e-29 -5.5155842e-28)
echo none
run 0
WARNING: No fixes with time integration, atoms won't move (src/verlet.cpp:60)
Per MPI rank memory allocation (min/avg/max) = 3.6 | 3.6 | 3.6 Mbytes
    PotEng          Pxx           E_mol          E_coul    
-2256.1903      62748.606      0              0            
Loop time of 6.4e-07 on 1 procs for 0 steps with 14 atoms

312.5% CPU use with 1 MPI tasks x 1 OpenMP threads

MPI task timing breakdown:
Section |  min time  |  avg time  |  max time  |%varavg| %total
---------------------------------------------------------------
Pair    | 0          | 0          | 0          |   0.0 |  0.00
Neigh   | 0          | 0          | 0          |   0.0 |  0.00
Comm    | 0          | 0          | 0          |   0.0 |  0.00
Output  | 0          | 0          | 0          |   0.0 |  0.00
Modify  | 0          | 0          | 0          |   0.0 |  0.00
Other   |            | 6.4e-07    |            |       |100.00

Nlocal:             14 ave          14 max          14 min
Histogram: 1 0 0 0 0 0 0 0 0 0
Nghost:            526 ave         526 max         526 min
Histogram: 1 0 0 0 0 0 0 0 0 0
Neighs:            464 ave         464 max         464 min
Histogram: 1 0 0 0 0 0 0 0 0 0
FullNghs:          928 ave         928 max         928 min
Histogram: 1 0 0 0 0 0 0 0 0 0

Total # of neighbors = 928
Ave neighs/atom = 66.285714
Neighbor list builds = 0
Dangerous builds = 0
set atom * x 0.0 y 0.0 z 0.0
Setting atom values ...
  14 settings made for x
  14 settings made for y
  14 settings made for z
change_box all     x final 0 5.248464047141006 y final 0 4.419279415774622 z final 0 18.793783314219123      xy final -0.14572651420974797 xz final 6.416284155525416e-29 yz final 2.6336022913703118e-27 units box
Changing box ...
  triclinic box = (0 0 0) to (5.248464 4.4823945 18.342097) with tilt (-0.14733846 -1.6247105e-29 -5.5155842e-28)
  triclinic box = (0 0 0) to (5.248464 4.4192794 18.342097) with tilt (-0.14733846 -1.6247105e-29 -5.5155842e-28)
  triclinic box = (0 0 0) to (5.248464 4.4192794 18.793783) with tilt (-0.14733846 -1.6247105e-29 -5.5155842e-28)
  triclinic box = (0 0 0) to (5.248464 4.4192794 18.793783) with tilt (-0.14572651 -1.6247105e-29 -5.5155842e-28)
  triclinic box = (0 0 0) to (5.248464 4.4192794 18.793783) with tilt (-0.14572651 6.4162842e-29 -5.5155842e-28)
  triclinic box = (0 0 0) to (5.248464 4.4192794 18.793783) with tilt (-0.14572651 6.4162842e-29 2.6336023e-27)
echo none
run 0
WARNING: No fixes with time integration, atoms won't move (src/verlet.cpp:60)
Per MPI rank memory allocation (min/avg/max) = 3.6 | 3.6 | 3.6 Mbytes
    PotEng          Pxx           E_mol          E_coul    
-2257.7396      22320.967      0              0            
Loop time of 6.02e-07 on 1 procs for 0 steps with 14 atoms

166.1% CPU use with 1 MPI tasks x 1 OpenMP threads

MPI task timing breakdown:
Section |  min time  |  avg time  |  max time  |%varavg| %total
---------------------------------------------------------------
Pair    | 0          | 0          | 0          |   0.0 |  0.00
Neigh   | 0          | 0          | 0          |   0.0 |  0.00
Comm    | 0          | 0          | 0          |   0.0 |  0.00
Output  | 0          | 0          | 0          |   0.0 |  0.00
Modify  | 0          | 0          | 0          |   0.0 |  0.00
Other   |            | 6.02e-07   |            |       |100.00

Nlocal:             14 ave          14 max          14 min
Histogram: 1 0 0 0 0 0 0 0 0 0
Nghost:            526 ave         526 max         526 min
Histogram: 1 0 0 0 0 0 0 0 0 0
Neighs:            468 ave         468 max         468 min
Histogram: 1 0 0 0 0 0 0 0 0 0
FullNghs:          936 ave         936 max         936 min
Histogram: 1 0 0 0 0 0 0 0 0 0

Total # of neighbors = 936
Ave neighs/atom = 66.857143
Neighbor list builds = 0
Dangerous builds = 0
set atom * x 0.0 y 0.0 z 0.0
Setting atom values ...
  14 settings made for x
  14 settings made for y
  14 settings made for z
change_box all     x final 0 5.299991487307114 y final 0 4.290719695054106 z final 0 19.09374339601497      xy final -0.13922154999053996 xz final -1.430359263230951e-28 yz final -5.8540334789921925e-27 units box
Changing box ...
  triclinic box = (0 0 0) to (5.2999915 4.4192794 18.793783) with tilt (-0.14572651 6.4162842e-29 2.6336023e-27)
  triclinic box = (0 0 0) to (5.2999915 4.2907197 18.793783) with tilt (-0.14572651 6.4162842e-29 2.6336023e-27)
  triclinic box = (0 0 0) to (5.2999915 4.2907197 19.093743) with tilt (-0.14572651 6.4162842e-29 2.6336023e-27)
  triclinic box = (0 0 0) to (5.2999915 4.2907197 19.093743) with tilt (-0.13922155 6.4162842e-29 2.6336023e-27)
  triclinic box = (0 0 0) to (5.2999915 4.2907197 19.093743) with tilt (-0.13922155 -1.4303593e-28 2.6336023e-27)
  triclinic box = (0 0 0) to (5.2999915 4.2907197 19.093743) with tilt (-0.13922155 -1.4303593e-28 -5.8540335e-27)
echo none
run 0
WARNING: No fixes with time integration, atoms won't move (src/verlet.cpp:60)
Per MPI rank memory allocation (min/avg/max) = 3.6 | 3.6 | 3.6 Mbytes
    PotEng          Pxx           E_mol          E_coul    
-2259.1602     -4955.5171      0              0            
Loop time of 6.56e-07 on 1 procs for 0 steps with 14 atoms

152.4% CPU use with 1 MPI tasks x 1 OpenMP threads

MPI task timing breakdown:
Section |  min time  |  avg time  |  max time  |%varavg| %total
---------------------------------------------------------------
Pair    | 0          | 0          | 0          |   0.0 |  0.00
Neigh   | 0          | 0          | 0          |   0.0 |  0.00
Comm    | 0          | 0          | 0          |   0.0 |  0.00
Output  | 0          | 0          | 0          |   0.0 |  0.00
Modify  | 0          | 0          | 0          |   0.0 |  0.00
Other   |            | 6.56e-07   |            |       |100.00

Nlocal:             14 ave          14 max          14 min
Histogram: 1 0 0 0 0 0 0 0 0 0
Nghost:            526 ave         526 max         526 min
Histogram: 1 0 0 0 0 0 0 0 0 0
Neighs:            474 ave         474 max         474 min
Histogram: 1 0 0 0 0 0 0 0 0 0
FullNghs:          948 ave         948 max         948 min
Histogram: 1 0 0 0 0 0 0 0 0 0

Total # of neighbors = 948
Ave neighs/atom = 67.714286
Neighbor list builds = 0
Dangerous builds = 0
set atom * x 0.0 y 0.0 z 0.0
Setting atom values ...
  14 settings made for x
  14 settings made for y
  14 settings made for z
change_box all     x final 0 5.293263133472397 y final 0 4.192257160199315 z final 0 19.05326601508989      xy final -0.13379824241746022 xz final -2.142938429919132e-28 yz final -9.140262615403814e-27 units box
Changing box ...
  triclinic box = (0 0 0) to (5.2932631 4.2907197 19.093743) with tilt (-0.13922155 -1.4303593e-28 -5.8540335e-27)
  triclinic box = (0 0 0) to (5.2932631 4.1922572 19.093743) with tilt (-0.13922155 -1.4303593e-28 -5.8540335e-27)
  triclinic box = (0 0 0) to (5.2932631 4.1922572 19.053266) with tilt (-0.13922155 -1.4303593e-28 -5.8540335e-27)
  triclinic box = (0 0 0) to (5.2932631 4.1922572 19.053266) with tilt (-0.13379824 -1.4303593e-28 -5.8540335e-27)
  triclinic box = (0 0 0) to (5.2932631 4.1922572 19.053266) with tilt (-0.13379824 -2.1429384e-28 -5.8540335e-27)
  triclinic box = (0 0 0) to (5.2932631 4.1922572 19.053266) with tilt (-0.13379824 -2.1429384e-28 -9.1402626e-27)
echo none
run 0
WARNING: No fixes with time integration, atoms won't move (src/verlet.cpp:60)
Per MPI rank memory allocation (min/avg/max) = 3.6 | 3.6 | 3.6 Mbytes
    PotEng          Pxx           E_mol          E_coul    
-2260.0632     -6301.9029      0              0            
Loop time of 6.39e-07 on 1 procs for 0 steps with 14 atoms

156.5% CPU use with 1 MPI tasks x 1 OpenMP threads

MPI task timing breakdown:
Section |  min time  |  avg time  |  max time  |%varavg| %total
---------------------------------------------------------------
Pair    | 0          | 0          | 0          |   0.0 |  0.00
Neigh   | 0          | 0          | 0          |   0.0 |  0.00
Comm    | 0          | 0          | 0          |   0.0 |  0.00
Output  | 0          | 0          | 0          |   0.0 |  0.00
Modify  | 0          | 0          | 0          |   0.0 |  0.00
Other   |            | 6.39e-07   |            |       |100.00

Nlocal:             14 ave          14 max          14 min
Histogram: 1 0 0 0 0 0 0 0 0 0
Nghost:            526 ave         526 max         526 min
Histogram: 1 0 0 0 0 0 0 0 0 0
Neighs:            496 ave         496 max         496 min
Histogram: 1 0 0 0 0 0 0 0 0 0
FullNghs:          992 ave         992 max         992 min
Histogram: 1 0 0 0 0 0 0 0 0 0

Total # of neighbors = 992
Ave neighs/atom = 70.857143
Neighbor list builds = 0
Dangerous builds = 0
set atom * x 0.0 y 0.0 z 0.0
Setting atom values ...
  14 settings made for x
  14 settings made for y
  14 settings made for z
change_box all     x final 0 5.2061165400731095 y final 0 3.178645940148084 z final 0 18.492820276686896      xy final -0.08931011983660685 xz final -1.9523464219227912e-27 yz final -9.429079983118537e-26 units box
Changing box ...
  triclinic box = (0 0 0) to (5.2061165 4.1922572 19.053266) with tilt (-0.13379824 -2.1429384e-28 -9.1402626e-27)
  triclinic box = (0 0 0) to (5.2061165 3.1786459 19.053266) with tilt (-0.13379824 -2.1429384e-28 -9.1402626e-27)
  triclinic box = (0 0 0) to (5.2061165 3.1786459 18.49282) with tilt (-0.13379824 -2.1429384e-28 -9.1402626e-27)
  triclinic box = (0 0 0) to (5.2061165 3.1786459 18.49282) with tilt (-0.08931012 -2.1429384e-28 -9.1402626e-27)
  triclinic box = (0 0 0) to (5.2061165 3.1786459 18.49282) with tilt (-0.08931012 -1.9523464e-27 -9.1402626e-27)
  triclinic box = (0 0 0) to (5.2061165 3.1786459 18.49282) with tilt (-0.08931012 -1.9523464e-27 -9.42908e-26)
echo none
run 0
WARNING: No fixes with time integration, atoms won't move (src/verlet.cpp:60)
Per MPI rank memory allocation (min/avg/max) = 3.609 | 3.609 | 3.609 Mbytes
    PotEng          Pxx           E_mol          E_coul    
-2269.4465      48691.675      0              0            
Loop time of 6.86e-07 on 1 procs for 0 steps with 14 atoms

145.8% CPU use with 1 MPI tasks x 1 OpenMP threads

MPI task timing breakdown:
Section |  min time  |  avg time  |  max time  |%varavg| %total
---------------------------------------------------------------
Pair    | 0          | 0          | 0          |   0.0 |  0.00
Neigh   | 0          | 0          | 0          |   0.0 |  0.00
Comm    | 0          | 0          | 0          |   0.0 |  0.00
Output  | 0          | 0          | 0          |   0.0 |  0.00
Modify  | 0          | 0          | 0          |   0.0 |  0.00
Other   |            | 6.86e-07   |            |       |100.00

Nlocal:             14 ave          14 max          14 min
Histogram: 1 0 0 0 0 0 0 0 0 0
Nghost:            650 ave         650 max         650 min
Histogram: 1 0 0 0 0 0 0 0 0 0
Neighs:            666 ave         666 max         666 min
Histogram: 1 0 0 0 0 0 0 0 0 0
FullNghs:         1332 ave        1332 max        1332 min
Histogram: 1 0 0 0 0 0 0 0 0 0

Total # of neighbors = 1332
Ave neighs/atom = 95.142857
Neighbor list builds = 0
Dangerous builds = 0
set atom * x 0.0 y 0.0 z 0.0
Setting atom values ...
  14 settings made for x
  14 settings made for y
  14 settings made for z
change_box all     x final 0 5.590599742092048 y final 0 2.6347134978277515 z final 0 19.49613922000425      xy final -0.011963417473515293 xz final 1.1198789952386967e-25 yz final 6.905133704344041e-24 units box
Changing box ...
  triclinic box = (0 0 0) to (5.5905997 3.1786459 18.49282) with tilt (-0.08931012 -1.9523464e-27 -9.42908e-26)
  triclinic box = (0 0 0) to (5.5905997 2.6347135 18.49282) with tilt (-0.08931012 -1.9523464e-27 -9.42908e-26)
  triclinic box = (0 0 0) to (5.5905997 2.6347135 19.496139) with tilt (-0.08931012 -1.9523464e-27 -9.42908e-26)
  triclinic box = (0 0 0) to (5.5905997 2.6347135 19.496139) with tilt (-0.011963417 -1.9523464e-27 -9.42908e-26)
  triclinic box = (0 0 0) to (5.5905997 2.6347135 19.496139) with tilt (-0.011963417 1.119879e-25 -9.42908e-26)
  triclinic box = (0 0 0) to (5.5905997 2.6347135 19.496139) with tilt (-0.011963417 1.119879e-25 6.9051337e-24)
echo none
run 0
WARNING: No fixes with time integration, atoms won't move (src/verlet.cpp:60)
Per MPI rank memory allocation (min/avg/max) = 3.619 | 3.619 | 3.619 Mbytes
    PotEng          Pxx           E_mol          E_coul    
-2274.1502     -69530.613      0              0            
Loop time of 6.11e-07 on 1 procs for 0 steps with 14 atoms

163.7% CPU use with 1 MPI tasks x 1 OpenMP threads

MPI task timing breakdown:
Section |  min time  |  avg time  |  max time  |%varavg| %total
---------------------------------------------------------------
Pair    | 0          | 0          | 0          |   0.0 |  0.00
Neigh   | 0          | 0          | 0          |   0.0 |  0.00
Comm    | 0          | 0          | 0          |   0.0 |  0.00
Output  | 0          | 0          | 0          |   0.0 |  0.00
Modify  | 0          | 0          | 0          |   0.0 |  0.00
Other   |            | 6.11e-07   |            |       |100.00

Nlocal:             14 ave          14 max          14 min
Histogram: 1 0 0 0 0 0 0 0 0 0
Nghost:            734 ave         734 max         734 min
Histogram: 1 0 0 0 0 0 0 0 0 0
Neighs:            730 ave         730 max         730 min
Histogram: 1 0 0 0 0 0 0 0 0 0
FullNghs:         1460 ave        1460 max        1460 min
Histogram: 1 0 0 0 0 0 0 0 0 0

Total # of neighbors = 1460
Ave neighs/atom = 104.28571
Neighbor list builds = 0
Dangerous builds = 0
set atom * x 0.0 y 0.0 z 0.0
Setting atom values ...
  14 settings made for x
  14 settings made for y
  14 settings made for z
change_box all     x final 0 5.242401942787503 y final 0 2.4182972549551964 z final 0 18.348388057759554      xy final 0.02970705213550973 xz final -8.669158196584449e-25 yz final -1.2361881407278904e-22 units box
Changing box ...
  triclinic box = (0 0 0) to (5.2424019 2.6347135 19.496139) with tilt (-0.011963417 1.119879e-25 6.9051337e-24)
  triclinic box = (0 0 0) to (5.2424019 2.4182973 19.496139) with tilt (-0.011963417 1.119879e-25 6.9051337e-24)
  triclinic box = (0 0 0) to (5.2424019 2.4182973 18.348388) with tilt (-0.011963417 1.119879e-25 6.9051337e-24)
  triclinic box = (0 0 0) to (5.2424019 2.4182973 18.348388) with tilt (0.029707052 1.119879e-25 6.9051337e-24)
  triclinic box = (0 0 0) to (5.2424019 2.4182973 18.348388) with tilt (0.029707052 -8.6691582e-25 6.9051337e-24)
  triclinic box = (0 0 0) to (5.2424019 2.4182973 18.348388) with tilt (0.029707052 -8.6691582e-25 -1.2361881e-22)
echo none
run 0
WARNING: No fixes with time integration, atoms won't move (src/verlet.cpp:60)
Per MPI rank memory allocation (min/avg/max) = 3.62 | 3.62 | 3.62 Mbytes
    PotEng          Pxx           E_mol          E_coul    
-2274.8507      105505.12      0              0            
Loop time of 6.28e-07 on 1 procs for 0 steps with 14 atoms

159.2% CPU use with 1 MPI tasks x 1 OpenMP threads

MPI task timing breakdown:
Section |  min time  |  avg time  |  max time  |%varavg| %total
---------------------------------------------------------------
Pair    | 0          | 0          | 0          |   0.0 |  0.00
Neigh   | 0          | 0          | 0          |   0.0 |  0.00
Comm    | 0          | 0          | 0          |   0.0 |  0.00
Output  | 0          | 0          | 0          |   0.0 |  0.00
Modify  | 0          | 0          | 0          |   0.0 |  0.00
Other   |            | 6.28e-07   |            |       |100.00

Nlocal:             14 ave          14 max          14 min
Histogram: 1 0 0 0 0 0 0 0 0 0
Nghost:            862 ave         862 max         862 min
Histogram: 1 0 0 0 0 0 0 0 0 0
Neighs:            916 ave         916 max         916 min
Histogram: 1 0 0 0 0 0 0 0 0 0
FullNghs:         1832 ave        1832 max        1832 min
Histogram: 1 0 0 0 0 0 0 0 0 0

Total # of neighbors = 1832
Ave neighs/atom = 130.85714
Neighbor list builds = 0
Dangerous builds = 0
set atom * x 0.0 y 0.0 z 0.0
Setting atom values ...
  14 settings made for x
  14 settings made for y
  14 settings made for z
change_box all     x final 0 5.458274514713892 y final 0 2.491143852515265 z final 0 18.86810279513219      xy final 0.04706975083353701 xz final 3.779212886486247e-24 yz final 1.2629760939042305e-21 units box
Changing box ...
  triclinic box = (0 0 0) to (5.4582745 2.4182973 18.348388) with tilt (0.029707052 -8.6691582e-25 -1.2361881e-22)
  triclinic box = (0 0 0) to (5.4582745 2.4911439 18.348388) with tilt (0.029707052 -8.6691582e-25 -1.2361881e-22)
  triclinic box = (0 0 0) to (5.4582745 2.4911439 18.868103) with tilt (0.029707052 -8.6691582e-25 -1.2361881e-22)
  triclinic box = (0 0 0) to (5.4582745 2.4911439 18.868103) with tilt (0.047069751 -8.6691582e-25 -1.2361881e-22)
  triclinic box = (0 0 0) to (5.4582745 2.4911439 18.868103) with tilt (0.047069751 3.7792129e-24 -1.2361881e-22)
  triclinic box = (0 0 0) to (5.4582745 2.4911439 18.868103) with tilt (0.047069751 3.7792129e-24 1.2629761e-21)
echo none
run 0
WARNING: No fixes with time integration, atoms won't move (src/verlet.cpp:60)
Per MPI rank memory allocation (min/avg/max) = 3.62 | 3.62 | 3.62 Mbytes
    PotEng          Pxx           E_mol          E_coul    
-2275.3932     -20572.201      0              0            
Loop time of 6.2e-07 on 1 procs for 0 steps with 14 atoms

161.3% CPU use with 1 MPI tasks x 1 OpenMP threads

MPI task timing breakdown:
Section |  min time  |  avg time  |  max time  |%varavg| %total
---------------------------------------------------------------
Pair    | 0          | 0          | 0          |   0.0 |  0.00
Neigh   | 0          | 0          | 0          |   0.0 |  0.00
Comm    | 0          | 0          | 0          |   0.0 |  0.00
Output  | 0          | 0          | 0          |   0.0 |  0.00
Modify  | 0          | 0          | 0          |   0.0 |  0.00
Other   |            | 6.2e-07    |            |       |100.00

Nlocal:             14 ave          14 max          14 min
Histogram: 1 0 0 0 0 0 0 0 0 0
Nghost:            734 ave         734 max         734 min
Histogram: 1 0 0 0 0 0 0 0 0 0
Neighs:            836 ave         836 max         836 min
Histogram: 1 0 0 0 0 0 0 0 0 0
FullNghs:         1672 ave        1672 max        1672 min
Histogram: 1 0 0 0 0 0 0 0 0 0

Total # of neighbors = 1672
Ave neighs/atom = 119.42857
Neighbor list builds = 0
Dangerous builds = 0
set atom * x 0.0 y 0.0 z 0.0
Setting atom values ...
  14 settings made for x
  14 settings made for y
  14 settings made for z
change_box all     x final 0 5.420122869518629 y final 0 2.4741821522294285 z final 0 18.70925626073011      xy final 0.06103548185243627 xz final 1.6571695925240148e-23 yz final 7.089067646137921e-21 units box
Changing box ...
  triclinic box = (0 0 0) to (5.4201229 2.4911439 18.868103) with tilt (0.047069751 3.7792129e-24 1.2629761e-21)
  triclinic box = (0 0 0) to (5.4201229 2.4741822 18.868103) with tilt (0.047069751 3.7792129e-24 1.2629761e-21)
  triclinic box = (0 0 0) to (5.4201229 2.4741822 18.709256) with tilt (0.047069751 3.7792129e-24 1.2629761e-21)
  triclinic box = (0 0 0) to (5.4201229 2.4741822 18.709256) with tilt (0.061035482 3.7792129e-24 1.2629761e-21)
  triclinic box = (0 0 0) to (5.4201229 2.4741822 18.709256) with tilt (0.061035482 1.6571696e-23 1.2629761e-21)
  triclinic box = (0 0 0) to (5.4201229 2.4741822 18.709256) with tilt (0.061035482 1.6571696e-23 7.0890676e-21)
echo none
run 0
WARNING: No fixes with time integration, atoms won't move (src/verlet.cpp:60)
Per MPI rank memory allocation (min/avg/max) = 3.62 | 3.62 | 3.62 Mbytes
    PotEng          Pxx           E_mol          E_coul    
-2275.4952     -2873.2797      0              0            
Loop time of 6.71e-07 on 1 procs for 0 steps with 14 atoms

149.0% CPU use with 1 MPI tasks x 1 OpenMP threads

MPI task timing breakdown:
Section |  min time  |  avg time  |  max time  |%varavg| %total
---------------------------------------------------------------
Pair    | 0          | 0          | 0          |   0.0 |  0.00
Neigh   | 0          | 0          | 0          |   0.0 |  0.00
Comm    | 0          | 0          | 0          |   0.0 |  0.00
Output  | 0          | 0          | 0          |   0.0 |  0.00
Modify  | 0          | 0          | 0          |   0.0 |  0.00
Other   |            | 6.71e-07   |            |       |100.00

Nlocal:             14 ave          14 max          14 min
Histogram: 1 0 0 0 0 0 0 0 0 0
Nghost:            734 ave         734 max         734 min
Histogram: 1 0 0 0 0 0 0 0 0 0
Neighs:            840 ave         840 max         840 min
Histogram: 1 0 0 0 0 0 0 0 0 0
FullNghs:         1680 ave        1680 max        1680 min
Histogram: 1 0 0 0 0 0 0 0 0 0

Total # of neighbors = 1680
Ave neighs/atom = 120
Neighbor list builds = 0
Dangerous builds = 0
set atom * x 0.0 y 0.0 z 0.0
Setting atom values ...
  14 settings made for x
  14 settings made for y
  14 settings made for z
change_box all     x final 0 5.413801484236643 y final 0 2.472181582793898 z final 0 18.63002509080329      xy final 0.07737766756507702 xz final 4.032887359678159e-23 yz final 2.3126126456557554e-20 units box
Changing box ...
  triclinic box = (0 0 0) to (5.4138015 2.4741822 18.709256) with tilt (0.061035482 1.6571696e-23 7.0890676e-21)
  triclinic box = (0 0 0) to (5.4138015 2.4721816 18.709256) with tilt (0.061035482 1.6571696e-23 7.0890676e-21)
  triclinic box = (0 0 0) to (5.4138015 2.4721816 18.630025) with tilt (0.061035482 1.6571696e-23 7.0890676e-21)
  triclinic box = (0 0 0) to (5.4138015 2.4721816 18.630025) with tilt (0.077377668 1.6571696e-23 7.0890676e-21)
  triclinic box = (0 0 0) to (5.4138015 2.4721816 18.630025) with tilt (0.077377668 4.0328874e-23 7.0890676e-21)
  triclinic box = (0 0 0) to (5.4138015 2.4721816 18.630025) with tilt (0.077377668 4.0328874e-23 2.3126126e-20)
echo none
run 0
WARNING: No fixes with time integration, atoms won't move (src/verlet.cpp:60)
Per MPI rank memory allocation (min/avg/max) = 3.62 | 3.62 | 3.62 Mbytes
    PotEng          Pxx           E_mol          E_coul    
-2275.5693      795.59236      0              0            
Loop time of 6.4e-07 on 1 procs for 0 steps with 14 atoms

156.2% CPU use with 1 MPI tasks x 1 OpenMP threads

MPI task timing breakdown:
Section |  min time  |  avg time  |  max time  |%varavg| %total
---------------------------------------------------------------
Pair    | 0          | 0          | 0          |   0.0 |  0.00
Neigh   | 0          | 0          | 0          |   0.0 |  0.00
Comm    | 0          | 0          | 0          |   0.0 |  0.00
Output  | 0          | 0          | 0          |   0.0 |  0.00
Modify  | 0          | 0          | 0          |   0.0 |  0.00
Other   |            | 6.4e-07    |            |       |100.00

Nlocal:             14 ave          14 max          14 min
Histogram: 1 0 0 0 0 0 0 0 0 0
Nghost:            734 ave         734 max         734 min
Histogram: 1 0 0 0 0 0 0 0 0 0
Neighs:            856 ave         856 max         856 min
Histogram: 1 0 0 0 0 0 0 0 0 0
FullNghs:         1712 ave        1712 max        1712 min
Histogram: 1 0 0 0 0 0 0 0 0 0

Total # of neighbors = 1712
Ave neighs/atom = 122.28571
Neighbor list builds = 0
Dangerous builds = 0
set atom * x 0.0 y 0.0 z 0.0
Setting atom values ...
  14 settings made for x
  14 settings made for y
  14 settings made for z
change_box all     x final 0 5.417252046492889 y final 0 2.476129601500369 z final 0 18.505308798606627      xy final 0.10893283974054166 xz final 1.5400770659246408e-22 yz final 1.0271311588550286e-19 units box
Changing box ...
  triclinic box = (0 0 0) to (5.417252 2.4721816 18.630025) with tilt (0.077377668 4.0328874e-23 2.3126126e-20)
  triclinic box = (0 0 0) to (5.417252 2.4761296 18.630025) with tilt (0.077377668 4.0328874e-23 2.3126126e-20)
  triclinic box = (0 0 0) to (5.417252 2.4761296 18.505309) with tilt (0.077377668 4.0328874e-23 2.3126126e-20)
  triclinic box = (0 0 0) to (5.417252 2.4761296 18.505309) with tilt (0.10893284 4.0328874e-23 2.3126126e-20)
  triclinic box = (0 0 0) to (5.417252 2.4761296 18.505309) with tilt (0.10893284 1.5400771e-22 2.3126126e-20)
  triclinic box = (0 0 0) to (5.417252 2.4761296 18.505309) with tilt (0.10893284 1.5400771e-22 1.0271312e-19)
echo none
run 0
WARNING: No fixes with time integration, atoms won't move (src/verlet.cpp:60)
Per MPI rank memory allocation (min/avg/max) = 3.62 | 3.62 | 3.62 Mbytes
    PotEng          Pxx           E_mol          E_coul    
-2275.7054      750.17632      0              0            
Loop time of 6.11e-07 on 1 procs for 0 steps with 14 atoms

163.7% CPU use with 1 MPI tasks x 1 OpenMP threads

MPI task timing breakdown:
Section |  min time  |  avg time  |  max time  |%varavg| %total
---------------------------------------------------------------
Pair    | 0          | 0          | 0          |   0.0 |  0.00
Neigh   | 0          | 0          | 0          |   0.0 |  0.00
Comm    | 0          | 0          | 0          |   0.0 |  0.00
Output  | 0          | 0          | 0          |   0.0 |  0.00
Modify  | 0          | 0          | 0          |   0.0 |  0.00
Other   |            | 6.11e-07   |            |       |100.00

Nlocal:             14 ave          14 max          14 min
Histogram: 1 0 0 0 0 0 0 0 0 0
Nghost:            734 ave         734 max         734 min
Histogram: 1 0 0 0 0 0 0 0 0 0
Neighs:            860 ave         860 max         860 min
Histogram: 1 0 0 0 0 0 0 0 0 0
FullNghs:         1720 ave        1720 max        1720 min
Histogram: 1 0 0 0 0 0 0 0 0 0

Total # of neighbors = 1720
Ave neighs/atom = 122.85714
Neighbor list builds = 0
Dangerous builds = 0
set atom * x 0.0 y 0.0 z 0.0
Setting atom values ...
  14 settings made for x
  14 settings made for y
  14 settings made for z
change_box all     x final 0 5.4536844741239845 y final 0 2.5041156582846473 z final 0 17.288174938057992      xy final 0.3721922121106538 xz final 4.2501012855255286e-20 yz final 3.124518619287048e-18 units box
Changing box ...
  triclinic box = (0 0 0) to (5.4536845 2.4761296 18.505309) with tilt (0.10893284 1.5400771e-22 1.0271312e-19)
  triclinic box = (0 0 0) to (5.4536845 2.5041157 18.505309) with tilt (0.10893284 1.5400771e-22 1.0271312e-19)
  triclinic box = (0 0 0) to (5.4536845 2.5041157 17.288175) with tilt (0.10893284 1.5400771e-22 1.0271312e-19)
  triclinic box = (0 0 0) to (5.4536845 2.5041157 17.288175) with tilt (0.37219221 1.5400771e-22 1.0271312e-19)
  triclinic box = (0 0 0) to (5.4536845 2.5041157 17.288175) with tilt (0.37219221 4.2501013e-20 1.0271312e-19)
  triclinic box = (0 0 0) to (5.4536845 2.5041157 17.288175) with tilt (0.37219221 4.2501013e-20 3.1245186e-18)
echo none
run 0
WARNING: No fixes with time integration, atoms won't move (src/verlet.cpp:60)
Per MPI rank memory allocation (min/avg/max) = 3.62 | 3.62 | 3.62 Mbytes
    PotEng          Pxx           E_mol          E_coul    
-2276.4499      14535.381      0              0            
Loop time of 6.51e-07 on 1 procs for 0 steps with 14 atoms

153.6% CPU use with 1 MPI tasks x 1 OpenMP threads

MPI task timing breakdown:
Section |  min time  |  avg time  |  max time  |%varavg| %total
---------------------------------------------------------------
Pair    | 0          | 0          | 0          |   0.0 |  0.00
Neigh   | 0          | 0          | 0          |   0.0 |  0.00
Comm    | 0          | 0          | 0          |   0.0 |  0.00
Output  | 0          | 0          | 0          |   0.0 |  0.00
Modify  | 0          | 0          | 0          |   0.0 |  0.00
Other   |            | 6.51e-07   |            |       |100.00

Nlocal:             14 ave          14 max          14 min
Histogram: 1 0 0 0 0 0 0 0 0 0
Nghost:            734 ave         734 max         734 min
Histogram: 1 0 0 0 0 0 0 0 0 0
Neighs:            882 ave         882 max         882 min
Histogram: 1 0 0 0 0 0 0 0 0 0
FullNghs:         1764 ave        1764 max        1764 min
Histogram: 1 0 0 0 0 0 0 0 0 0

Total # of neighbors = 1764
Ave neighs/atom = 126
Neighbor list builds = 0
Dangerous builds = 0
set atom * x 0.0 y 0.0 z 0.0
Setting atom values ...
  14 settings made for x
  14 settings made for y
  14 settings made for z
change_box all     x final 0 5.82474302704669 y final 0 2.5865996793443586 z final 0 18.276929103850932      xy final 0.31650762085001005 xz final 6.274027022480935e-19 yz final -2.4028134465124476e-17 units box
Changing box ...
  triclinic box = (0 0 0) to (5.824743 2.5041157 17.288175) with tilt (0.37219221 4.2501013e-20 3.1245186e-18)
  triclinic box = (0 0 0) to (5.824743 2.5865997 17.288175) with tilt (0.37219221 4.2501013e-20 3.1245186e-18)
  triclinic box = (0 0 0) to (5.824743 2.5865997 18.276929) with tilt (0.37219221 4.2501013e-20 3.1245186e-18)
  triclinic box = (0 0 0) to (5.824743 2.5865997 18.276929) with tilt (0.31650762 4.2501013e-20 3.1245186e-18)
  triclinic box = (0 0 0) to (5.824743 2.5865997 18.276929) with tilt (0.31650762 6.274027e-19 3.1245186e-18)
  triclinic box = (0 0 0) to (5.824743 2.5865997 18.276929) with tilt (0.31650762 6.274027e-19 -2.4028134e-17)
echo none
run 0
WARNING: No fixes with time integration, atoms won't move (src/verlet.cpp:60)
Per MPI rank memory allocation (min/avg/max) = 3.62 | 3.62 | 3.62 Mbytes
    PotEng          Pxx           E_mol          E_coul    
-2275.26       -101336.28      0              0            
Loop time of 6.16e-07 on 1 procs for 0 steps with 14 atoms

162.3% CPU use with 1 MPI tasks x 1 OpenMP threads

MPI task timing breakdown:
Section |  min time  |  avg time  |  max time  |%varavg| %total
---------------------------------------------------------------
Pair    | 0          | 0          | 0          |   0.0 |  0.00
Neigh   | 0          | 0          | 0          |   0.0 |  0.00
Comm    | 0          | 0          | 0          |   0.0 |  0.00
Output  | 0          | 0          | 0          |   0.0 |  0.00
Modify  | 0          | 0          | 0          |   0.0 |  0.00
Other   |            | 6.16e-07   |            |       |100.00

Nlocal:             14 ave          14 max          14 min
Histogram: 1 0 0 0 0 0 0 0 0 0
Nghost:            706 ave         706 max         706 min
Histogram: 1 0 0 0 0 0 0 0 0 0
Neighs:            766 ave         766 max         766 min
Histogram: 1 0 0 0 0 0 0 0 0 0
FullNghs:         1532 ave        1532 max        1532 min
Histogram: 1 0 0 0 0 0 0 0 0 0

Total # of neighbors = 1532
Ave neighs/atom = 109.42857
Neighbor list builds = 0
Dangerous builds = 0
set atom * x 0.0 y 0.0 z 0.0
Setting atom values ...
  14 settings made for x
  14 settings made for y
  14 settings made for z
change_box all     x final 0 5.511090180981955 y final 0 2.4825234845056756 z final 0 17.294912037071313      xy final 0.29397129470598105 xz final 1.0535519648786408e-17 yz final -7.469446774771823e-16 units box
Changing box ...
  triclinic box = (0 0 0) to (5.5110902 2.5865997 18.276929) with tilt (0.31650762 6.274027e-19 -2.4028134e-17)
  triclinic box = (0 0 0) to (5.5110902 2.4825235 18.276929) with tilt (0.31650762 6.274027e-19 -2.4028134e-17)
  triclinic box = (0 0 0) to (5.5110902 2.4825235 17.294912) with tilt (0.31650762 6.274027e-19 -2.4028134e-17)
  triclinic box = (0 0 0) to (5.5110902 2.4825235 17.294912) with tilt (0.29397129 6.274027e-19 -2.4028134e-17)
  triclinic box = (0 0 0) to (5.5110902 2.4825235 17.294912) with tilt (0.29397129 1.053552e-17 -2.4028134e-17)
  triclinic box = (0 0 0) to (5.5110902 2.4825235 17.294912) with tilt (0.29397129 1.053552e-17 -7.4694468e-16)
echo none
run 0
WARNING: No fixes with time integration, atoms won't move (src/verlet.cpp:60)
Per MPI rank memory allocation (min/avg/max) = 3.62 | 3.62 | 3.62 Mbytes
    PotEng          Pxx           E_mol          E_coul    
-2276.6125     -8150.311       0              0            
Loop time of 6.39e-07 on 1 procs for 0 steps with 14 atoms

313.0% CPU use with 1 MPI tasks x 1 OpenMP threads

MPI task timing breakdown:
Section |  min time  |  avg time  |  max time  |%varavg| %total
---------------------------------------------------------------
Pair    | 0          | 0          | 0          |   0.0 |  0.00
Neigh   | 0          | 0          | 0          |   0.0 |  0.00
Comm    | 0          | 0          | 0          |   0.0 |  0.00
Output  | 0          | 0          | 0          |   0.0 |  0.00
Modify  | 0          | 0          | 0          |   0.0 |  0.00
Other   |            | 6.39e-07   |            |       |100.00

Nlocal:             14 ave          14 max          14 min
Histogram: 1 0 0 0 0 0 0 0 0 0
Nghost:            734 ave         734 max         734 min
Histogram: 1 0 0 0 0 0 0 0 0 0
Neighs:            886 ave         886 max         886 min
Histogram: 1 0 0 0 0 0 0 0 0 0
FullNghs:         1772 ave        1772 max        1772 min
Histogram: 1 0 0 0 0 0 0 0 0 0

Total # of neighbors = 1772
Ave neighs/atom = 126.57143
Neighbor list builds = 0
Dangerous builds = 0
set atom * x 0.0 y 0.0 z 0.0
Setting atom values ...
  14 settings made for x
  14 settings made for y
  14 settings made for z
change_box all     x final 0 5.490515923465608 y final 0 2.509557056780198 z final 0 17.227919431263995      xy final 0.2987327945809136 xz final 2.6477725118468623e-17 yz final -1.9854463835120165e-15 units box
Changing box ...
  triclinic box = (0 0 0) to (5.4905159 2.4825235 17.294912) with tilt (0.29397129 1.053552e-17 -7.4694468e-16)
  triclinic box = (0 0 0) to (5.4905159 2.5095571 17.294912) with tilt (0.29397129 1.053552e-17 -7.4694468e-16)
  triclinic box = (0 0 0) to (5.4905159 2.5095571 17.227919) with tilt (0.29397129 1.053552e-17 -7.4694468e-16)
  triclinic box = (0 0 0) to (5.4905159 2.5095571 17.227919) with tilt (0.29873279 1.053552e-17 -7.4694468e-16)
  triclinic box = (0 0 0) to (5.4905159 2.5095571 17.227919) with tilt (0.29873279 2.6477725e-17 -7.4694468e-16)
  triclinic box = (0 0 0) to (5.4905159 2.5095571 17.227919) with tilt (0.29873279 2.6477725e-17 -1.9854464e-15)
echo none
run 0
WARNING: No fixes with time integration, atoms won't move (src/verlet.cpp:60)
Per MPI rank memory allocation (min/avg/max) = 3.62 | 3.62 | 3.62 Mbytes
    PotEng          Pxx           E_mol          E_coul    
-2276.6549     -3507.275       0              0            
Loop time of 6.43e-07 on 1 procs for 0 steps with 14 atoms

155.5% CPU use with 1 MPI tasks x 1 OpenMP threads

MPI task timing breakdown:
Section |  min time  |  avg time  |  max time  |%varavg| %total
---------------------------------------------------------------
Pair    | 0          | 0          | 0          |   0.0 |  0.00
Neigh   | 0          | 0          | 0          |   0.0 |  0.00
Comm    | 0          | 0          | 0          |   0.0 |  0.00
Output  | 0          | 0          | 0          |   0.0 |  0.00
Modify  | 0          | 0          | 0          |   0.0 |  0.00
Other   |            | 6.43e-07   |            |       |100.00

Nlocal:             14 ave          14 max          14 min
Histogram: 1 0 0 0 0 0 0 0 0 0
Nghost:            734 ave         734 max         734 min
Histogram: 1 0 0 0 0 0 0 0 0 0
Neighs:            890 ave         890 max         890 min
Histogram: 1 0 0 0 0 0 0 0 0 0
FullNghs:         1780 ave        1780 max        1780 min
Histogram: 1 0 0 0 0 0 0 0 0 0

Total # of neighbors = 1780
Ave neighs/atom = 127.14286
Neighbor list builds = 0
Dangerous builds = 0
set atom * x 0.0 y 0.0 z 0.0
Setting atom values ...
  14 settings made for x
  14 settings made for y
  14 settings made for z
change_box all     x final 0 5.478474766760248 y final 0 2.519002980681886 z final 0 17.14644380875316      xy final 0.30025763555477136 xz final 7.737407854879574e-17 yz final -5.809303412081711e-15 units box
Changing box ...
  triclinic box = (0 0 0) to (5.4784748 2.5095571 17.227919) with tilt (0.29873279 2.6477725e-17 -1.9854464e-15)
  triclinic box = (0 0 0) to (5.4784748 2.519003 17.227919) with tilt (0.29873279 2.6477725e-17 -1.9854464e-15)
  triclinic box = (0 0 0) to (5.4784748 2.519003 17.146444) with tilt (0.29873279 2.6477725e-17 -1.9854464e-15)
  triclinic box = (0 0 0) to (5.4784748 2.519003 17.146444) with tilt (0.30025764 2.6477725e-17 -1.9854464e-15)
  triclinic box = (0 0 0) to (5.4784748 2.519003 17.146444) with tilt (0.30025764 7.7374079e-17 -1.9854464e-15)
  triclinic box = (0 0 0) to (5.4784748 2.519003 17.146444) with tilt (0.30025764 7.7374079e-17 -5.8093034e-15)
echo none
run 0
WARNING: No fixes with time integration, atoms won't move (src/verlet.cpp:60)
Per MPI rank memory allocation (min/avg/max) = 3.62 | 3.62 | 3.62 Mbytes
    PotEng          Pxx           E_mol          E_coul    
-2276.6774      1926.1863      0              0            
Loop time of 6.26e-07 on 1 procs for 0 steps with 14 atoms

159.7% CPU use with 1 MPI tasks x 1 OpenMP threads

MPI task timing breakdown:
Section |  min time  |  avg time  |  max time  |%varavg| %total
---------------------------------------------------------------
Pair    | 0          | 0          | 0          |   0.0 |  0.00
Neigh   | 0          | 0          | 0          |   0.0 |  0.00
Comm    | 0          | 0          | 0          |   0.0 |  0.00
Output  | 0          | 0          | 0          |   0.0 |  0.00
Modify  | 0          | 0          | 0          |   0.0 |  0.00
Other   |            | 6.26e-07   |            |       |100.00

Nlocal:             14 ave          14 max          14 min
Histogram: 1 0 0 0 0 0 0 0 0 0
Nghost:            734 ave         734 max         734 min
Histogram: 1 0 0 0 0 0 0 0 0 0
Neighs:            886 ave         886 max         886 min
Histogram: 1 0 0 0 0 0 0 0 0 0
FullNghs:         1772 ave        1772 max        1772 min
Histogram: 1 0 0 0 0 0 0 0 0 0

Total # of neighbors = 1772
Ave neighs/atom = 126.57143
Neighbor list builds = 0
Dangerous builds = 0
set atom * x 0.0 y 0.0 z 0.0
Setting atom values ...
  14 settings made for x
  14 settings made for y
  14 settings made for z
change_box all     x final 0 5.478474766760248 y final 0 2.519002980681886 z final 0 17.14644380875316      xy final 0.30025763555477103 xz final 1.9936301237004273e-16 yz final -2.6548646695524417e-17 units box
Changing box ...
  triclinic box = (0 0 0) to (5.4784748 2.519003 17.146444) with tilt (0.30025764 7.7374079e-17 -5.8093034e-15)
  triclinic box = (0 0 0) to (5.4784748 2.519003 17.146444) with tilt (0.30025764 7.7374079e-17 -5.8093034e-15)
  triclinic box = (0 0 0) to (5.4784748 2.519003 17.146444) with tilt (0.30025764 7.7374079e-17 -5.8093034e-15)
  triclinic box = (0 0 0) to (5.4784748 2.519003 17.146444) with tilt (0.30025764 7.7374079e-17 -5.8093034e-15)
  triclinic box = (0 0 0) to (5.4784748 2.519003 17.146444) with tilt (0.30025764 1.9936301e-16 -5.8093034e-15)
  triclinic box = (0 0 0) to (5.4784748 2.519003 17.146444) with tilt (0.30025764 1.9936301e-16 -2.6548647e-17)
echo none
run 0
WARNING: No fixes with time integration, atoms won't move (src/verlet.cpp:60)
Per MPI rank memory allocation (min/avg/max) = 3.62 | 3.62 | 3.62 Mbytes
    PotEng          Pxx           E_mol          E_coul    
-2276.6774      1926.1863      0              0            
Loop time of 6.41e-07 on 1 procs for 0 steps with 14 atoms

156.0% CPU use with 1 MPI tasks x 1 OpenMP threads

MPI task timing breakdown:
Section |  min time  |  avg time  |  max time  |%varavg| %total
---------------------------------------------------------------
Pair    | 0          | 0          | 0          |   0.0 |  0.00
Neigh   | 0          | 0          | 0          |   0.0 |  0.00
Comm    | 0          | 0          | 0          |   0.0 |  0.00
Output  | 0          | 0          | 0          |   0.0 |  0.00
Modify  | 0          | 0          | 0          |   0.0 |  0.00
Other   |            | 6.41e-07   |            |       |100.00

Nlocal:             14 ave          14 max          14 min
Histogram: 1 0 0 0 0 0 0 0 0 0
Nghost:            734 ave         734 max         734 min
Histogram: 1 0 0 0 0 0 0 0 0 0
Neighs:            886 ave         886 max         886 min
Histogram: 1 0 0 0 0 0 0 0 0 0
FullNghs:         1772 ave        1772 max        1772 min
Histogram: 1 0 0 0 0 0 0 0 0 0

Total # of neighbors = 1772
Ave neighs/atom = 126.57143
Neighbor list builds = 0
Dangerous builds = 0
set atom * x 0.0 y 0.0 z 0.0
Setting atom values ...
  14 settings made for x
  14 settings made for y
  14 settings made for z
change_box all     x final 0 5.478474766760246 y final 0 2.519002980681886 z final 0 17.14644380875316      xy final 0.30025763555477114 xz final 1.9936301237004273e-16 yz final -2.6548646695524417e-17 units box
Changing box ...
  triclinic box = (0 0 0) to (5.4784748 2.519003 17.146444) with tilt (0.30025764 1.9936301e-16 -2.6548647e-17)
  triclinic box = (0 0 0) to (5.4784748 2.519003 17.146444) with tilt (0.30025764 1.9936301e-16 -2.6548647e-17)
  triclinic box = (0 0 0) to (5.4784748 2.519003 17.146444) with tilt (0.30025764 1.9936301e-16 -2.6548647e-17)
  triclinic box = (0 0 0) to (5.4784748 2.519003 17.146444) with tilt (0.30025764 1.9936301e-16 -2.6548647e-17)
  triclinic box = (0 0 0) to (5.4784748 2.519003 17.146444) with tilt (0.30025764 1.9936301e-16 -2.6548647e-17)
  triclinic box = (0 0 0) to (5.4784748 2.519003 17.146444) with tilt (0.30025764 1.9936301e-16 -2.6548647e-17)
echo none
run 0
WARNING: No fixes with time integration, atoms won't move (src/verlet.cpp:60)
Per MPI rank memory allocation (min/avg/max) = 3.62 | 3.62 | 3.62 Mbytes
    PotEng          Pxx           E_mol          E_coul    
-2276.6774      1926.1863      0              0            
Loop time of 1.389e-06 on 1 procs for 0 steps with 14 atoms

144.0% CPU use with 1 MPI tasks x 1 OpenMP threads

MPI task timing breakdown:
Section |  min time  |  avg time  |  max time  |%varavg| %total
---------------------------------------------------------------
Pair    | 0          | 0          | 0          |   0.0 |  0.00
Neigh   | 0          | 0          | 0          |   0.0 |  0.00
Comm    | 0          | 0          | 0          |   0.0 |  0.00
Output  | 0          | 0          | 0          |   0.0 |  0.00
Modify  | 0          | 0          | 0          |   0.0 |  0.00
Other   |            | 1.389e-06  |            |       |100.00

Nlocal:             14 ave          14 max          14 min
Histogram: 1 0 0 0 0 0 0 0 0 0
Nghost:            734 ave         734 max         734 min
Histogram: 1 0 0 0 0 0 0 0 0 0
Neighs:            886 ave         886 max         886 min
Histogram: 1 0 0 0 0 0 0 0 0 0
FullNghs:         1772 ave        1772 max        1772 min
Histogram: 1 0 0 0 0 0 0 0 0 0

Total # of neighbors = 1772
Ave neighs/atom = 126.57143
Neighbor list builds = 0
Dangerous builds = 0
set atom * x 0.0 y 0.0 z 0.0
Setting atom values ...
  14 settings made for x
  14 settings made for y
  14 settings made for z
change_box all     x final 0 5.550846975045013 y final 0 2.5661212315493613 z final 0 16.792416408439024      xy final 0.31066036660323054 xz final -1.2764082917422127e-17 yz final -3.281481071895446e-17 units box
Changing box ...
  triclinic box = (0 0 0) to (5.550847 2.519003 17.146444) with tilt (0.30025764 1.9936301e-16 -2.6548647e-17)
  triclinic box = (0 0 0) to (5.550847 2.5661212 17.146444) with tilt (0.30025764 1.9936301e-16 -2.6548647e-17)
  triclinic box = (0 0 0) to (5.550847 2.5661212 16.792416) with tilt (0.30025764 1.9936301e-16 -2.6548647e-17)
  triclinic box = (0 0 0) to (5.550847 2.5661212 16.792416) with tilt (0.31066037 1.9936301e-16 -2.6548647e-17)
  triclinic box = (0 0 0) to (5.550847 2.5661212 16.792416) with tilt (0.31066037 -1.2764083e-17 -2.6548647e-17)
  triclinic box = (0 0 0) to (5.550847 2.5661212 16.792416) with tilt (0.31066037 -1.2764083e-17 -3.2814811e-17)
echo none
run 0
WARNING: No fixes with time integration, atoms won't move (src/verlet.cpp:60)
Per MPI rank memory allocation (min/avg/max) = 3.62 | 3.62 | 3.62 Mbytes
    PotEng          Pxx           E_mol          E_coul    
-2276.8257     -16337.269      0              0            
Loop time of 6.25e-07 on 1 procs for 0 steps with 14 atoms

160.0% CPU use with 1 MPI tasks x 1 OpenMP threads

MPI task timing breakdown:
Section |  min time  |  avg time  |  max time  |%varavg| %total
---------------------------------------------------------------
Pair    | 0          | 0          | 0          |   0.0 |  0.00
Neigh   | 0          | 0          | 0          |   0.0 |  0.00
Comm    | 0          | 0          | 0          |   0.0 |  0.00
Output  | 0          | 0          | 0          |   0.0 |  0.00
Modify  | 0          | 0          | 0          |   0.0 |  0.00
Other   |            | 6.25e-07   |            |       |100.00

Nlocal:             14 ave          14 max          14 min
Histogram: 1 0 0 0 0 0 0 0 0 0
Nghost:            734 ave         734 max         734 min
Histogram: 1 0 0 0 0 0 0 0 0 0
Neighs:            856 ave         856 max         856 min
Histogram: 1 0 0 0 0 0 0 0 0 0
FullNghs:         1712 ave        1712 max        1712 min
Histogram: 1 0 0 0 0 0 0 0 0 0

Total # of neighbors = 1712
Ave neighs/atom = 122.28571
Neighbor list builds = 0
Dangerous builds = 0
set atom * x 0.0 y 0.0 z 0.0
Setting atom values ...
  14 settings made for x
  14 settings made for y
  14 settings made for z
change_box all     x final 0 5.5508469750450145 y final 0 2.5661212315493613 z final 0 16.792416408439024      xy final 0.3106603666032306 xz final -1.2764082917422122e-17 yz final -3.281481071895446e-17 units box
Changing box ...
  triclinic box = (0 0 0) to (5.550847 2.5661212 16.792416) with tilt (0.31066037 -1.2764083e-17 -3.2814811e-17)
  triclinic box = (0 0 0) to (5.550847 2.5661212 16.792416) with tilt (0.31066037 -1.2764083e-17 -3.2814811e-17)
  triclinic box = (0 0 0) to (5.550847 2.5661212 16.792416) with tilt (0.31066037 -1.2764083e-17 -3.2814811e-17)
  triclinic box = (0 0 0) to (5.550847 2.5661212 16.792416) with tilt (0.31066037 -1.2764083e-17 -3.2814811e-17)
  triclinic box = (0 0 0) to (5.550847 2.5661212 16.792416) with tilt (0.31066037 -1.2764083e-17 -3.2814811e-17)
  triclinic box = (0 0 0) to (5.550847 2.5661212 16.792416) with tilt (0.31066037 -1.2764083e-17 -3.2814811e-17)
echo none
run 0
WARNING: No fixes with time integration, atoms won't move (src/verlet.cpp:60)
Per MPI rank memory allocation (min/avg/max) = 3.62 | 3.62 | 3.62 Mbytes
    PotEng          Pxx           E_mol          E_coul    
-2276.8257     -16337.269      0              0            
Loop time of 6.11e-07 on 1 procs for 0 steps with 14 atoms

163.7% CPU use with 1 MPI tasks x 1 OpenMP threads

MPI task timing breakdown:
Section |  min time  |  avg time  |  max time  |%varavg| %total
---------------------------------------------------------------
Pair    | 0          | 0          | 0          |   0.0 |  0.00
Neigh   | 0          | 0          | 0          |   0.0 |  0.00
Comm    | 0          | 0          | 0          |   0.0 |  0.00
Output  | 0          | 0          | 0          |   0.0 |  0.00
Modify  | 0          | 0          | 0          |   0.0 |  0.00
Other   |            | 6.11e-07   |            |       |100.00

Nlocal:             14 ave          14 max          14 min
Histogram: 1 0 0 0 0 0 0 0 0 0
Nghost:            734 ave         734 max         734 min
Histogram: 1 0 0 0 0 0 0 0 0 0
Neighs:            856 ave         856 max         856 min
Histogram: 1 0 0 0 0 0 0 0 0 0
FullNghs:         1712 ave        1712 max        1712 min
Histogram: 1 0 0 0 0 0 0 0 0 0

Total # of neighbors = 1712
Ave neighs/atom = 122.28571
Neighbor list builds = 0
Dangerous builds = 0
set atom * x 0.0 y 0.0 z 0.0
Setting atom values ...
  14 settings made for x
  14 settings made for y
  14 settings made for z
change_box all     x final 0 5.6241931236006835 y final 0 2.6141125229838758 z final 0 16.44569871044983      xy final 0.3213574491274195 xz final -1.6119834583289077e-16 yz final -3.676565984360725e-17 units box
Changing box ...
  triclinic box = (0 0 0) to (5.6241931 2.5661212 16.792416) with tilt (0.31066037 -1.2764083e-17 -3.2814811e-17)
  triclinic box = (0 0 0) to (5.6241931 2.6141125 16.792416) with tilt (0.31066037 -1.2764083e-17 -3.2814811e-17)
  triclinic box = (0 0 0) to (5.6241931 2.6141125 16.445699) with tilt (0.31066037 -1.2764083e-17 -3.2814811e-17)
  triclinic box = (0 0 0) to (5.6241931 2.6141125 16.445699) with tilt (0.32135745 -1.2764083e-17 -3.2814811e-17)
  triclinic box = (0 0 0) to (5.6241931 2.6141125 16.445699) with tilt (0.32135745 -1.6119835e-16 -3.2814811e-17)
  triclinic box = (0 0 0) to (5.6241931 2.6141125 16.445699) with tilt (0.32135745 -1.6119835e-16 -3.676566e-17)
echo none
run 0
WARNING: No fixes with time integration, atoms won't move (src/verlet.cpp:60)
Per MPI rank memory allocation (min/avg/max) = 3.62 | 3.62 | 3.62 Mbytes
    PotEng          Pxx           E_mol          E_coul    
-2276.8974     -31863.261      0              0            
Loop time of 6.09e-07 on 1 procs for 0 steps with 14 atoms

164.2% CPU use with 1 MPI tasks x 1 OpenMP threads

MPI task timing breakdown:
Section |  min time  |  avg time  |  max time  |%varavg| %total
---------------------------------------------------------------
Pair    | 0          | 0          | 0          |   0.0 |  0.00
Neigh   | 0          | 0          | 0          |   0.0 |  0.00
Comm    | 0          | 0          | 0          |   0.0 |  0.00
Output  | 0          | 0          | 0          |   0.0 |  0.00
Modify  | 0          | 0          | 0          |   0.0 |  0.00
Other   |            | 6.09e-07   |            |       |100.00

Nlocal:             14 ave          14 max          14 min
Histogram: 1 0 0 0 0 0 0 0 0 0
Nghost:            734 ave         734 max         734 min
Histogram: 1 0 0 0 0 0 0 0 0 0
Neighs:            834 ave         834 max         834 min
Histogram: 1 0 0 0 0 0 0 0 0 0
FullNghs:         1668 ave        1668 max        1668 min
Histogram: 1 0 0 0 0 0 0 0 0 0

Total # of neighbors = 1668
Ave neighs/atom = 119.14286
Neighbor list builds = 0
Dangerous builds = 0
set atom * x 0.0 y 0.0 z 0.0
Setting atom values ...
  14 settings made for x
  14 settings made for y
  14 settings made for z
change_box all     x final 0 5.624193123600685 y final 0 2.6141125229838753 z final 0 16.44569871044983      xy final 0.3213574491274195 xz final -1.6119834583289067e-16 yz final -3.676565984360725e-17 units box
Changing box ...
  triclinic box = (0 0 0) to (5.6241931 2.6141125 16.445699) with tilt (0.32135745 -1.6119835e-16 -3.676566e-17)
  triclinic box = (0 0 0) to (5.6241931 2.6141125 16.445699) with tilt (0.32135745 -1.6119835e-16 -3.676566e-17)
  triclinic box = (0 0 0) to (5.6241931 2.6141125 16.445699) with tilt (0.32135745 -1.6119835e-16 -3.676566e-17)
  triclinic box = (0 0 0) to (5.6241931 2.6141125 16.445699) with tilt (0.32135745 -1.6119835e-16 -3.676566e-17)
  triclinic box = (0 0 0) to (5.6241931 2.6141125 16.445699) with tilt (0.32135745 -1.6119835e-16 -3.676566e-17)
  triclinic box = (0 0 0) to (5.6241931 2.6141125 16.445699) with tilt (0.32135745 -1.6119835e-16 -3.676566e-17)
echo none
run 0
WARNING: No fixes with time integration, atoms won't move (src/verlet.cpp:60)
Per MPI rank memory allocation (min/avg/max) = 3.62 | 3.62 | 3.62 Mbytes
    PotEng          Pxx           E_mol          E_coul    
-2276.8974     -31863.261      0              0            
Loop time of 6.25e-07 on 1 procs for 0 steps with 14 atoms

160.0% CPU use with 1 MPI tasks x 1 OpenMP threads

MPI task timing breakdown:
Section |  min time  |  avg time  |  max time  |%varavg| %total
---------------------------------------------------------------
Pair    | 0          | 0          | 0          |   0.0 |  0.00
Neigh   | 0          | 0          | 0          |   0.0 |  0.00
Comm    | 0          | 0          | 0          |   0.0 |  0.00
Output  | 0          | 0          | 0          |   0.0 |  0.00
Modify  | 0          | 0          | 0          |   0.0 |  0.00
Other   |            | 6.25e-07   |            |       |100.00

Nlocal:             14 ave          14 max          14 min
Histogram: 1 0 0 0 0 0 0 0 0 0
Nghost:            734 ave         734 max         734 min
Histogram: 1 0 0 0 0 0 0 0 0 0
Neighs:            834 ave         834 max         834 min
Histogram: 1 0 0 0 0 0 0 0 0 0
FullNghs:         1668 ave        1668 max        1668 min
Histogram: 1 0 0 0 0 0 0 0 0 0

Total # of neighbors = 1668
Ave neighs/atom = 119.14286
Neighbor list builds = 0
Dangerous builds = 0
set atom * x 0.0 y 0.0 z 0.0
Setting atom values ...
  14 settings made for x
  14 settings made for y
  14 settings made for z
change_box all     x final 0 5.638219740848168 y final 0 2.6270857034514505 z final 0 16.029106697478717      xy final 0.32603423062213355 xz final -2.907051188519605e-16 yz final -4.058319204612301e-17 units box
Changing box ...
  triclinic box = (0 0 0) to (5.6382197 2.6141125 16.445699) with tilt (0.32135745 -1.6119835e-16 -3.676566e-17)
  triclinic box = (0 0 0) to (5.6382197 2.6270857 16.445699) with tilt (0.32135745 -1.6119835e-16 -3.676566e-17)
  triclinic box = (0 0 0) to (5.6382197 2.6270857 16.029107) with tilt (0.32135745 -1.6119835e-16 -3.676566e-17)
  triclinic box = (0 0 0) to (5.6382197 2.6270857 16.029107) with tilt (0.32603423 -1.6119835e-16 -3.676566e-17)
  triclinic box = (0 0 0) to (5.6382197 2.6270857 16.029107) with tilt (0.32603423 -2.9070512e-16 -3.676566e-17)
  triclinic box = (0 0 0) to (5.6382197 2.6270857 16.029107) with tilt (0.32603423 -2.9070512e-16 -4.0583192e-17)
echo none
run 0
WARNING: No fixes with time integration, atoms won't move (src/verlet.cpp:60)
Per MPI rank memory allocation (min/avg/max) = 3.62 | 3.62 | 3.62 Mbytes
    PotEng          Pxx           E_mol          E_coul    
-2277.0566     -23973.784      0              0            
Loop time of 6.09e-07 on 1 procs for 0 steps with 14 atoms

164.2% CPU use with 1 MPI tasks x 1 OpenMP threads

MPI task timing breakdown:
Section |  min time  |  avg time  |  max time  |%varavg| %total
---------------------------------------------------------------
Pair    | 0          | 0          | 0          |   0.0 |  0.00
Neigh   | 0          | 0          | 0          |   0.0 |  0.00
Comm    | 0          | 0          | 0          |   0.0 |  0.00
Output  | 0          | 0          | 0          |   0.0 |  0.00
Modify  | 0          | 0          | 0          |   0.0 |  0.00
Other   |            | 6.09e-07   |            |       |100.00

Nlocal:             14 ave          14 max          14 min
Histogram: 1 0 0 0 0 0 0 0 0 0
Nghost:            734 ave         734 max         734 min
Histogram: 1 0 0 0 0 0 0 0 0 0
Neighs:            850 ave         850 max         850 min
Histogram: 1 0 0 0 0 0 0 0 0 0
FullNghs:         1700 ave        1700 max        1700 min
Histogram: 1 0 0 0 0 0 0 0 0 0

Total # of neighbors = 1700
Ave neighs/atom = 121.42857
Neighbor list builds = 0
Dangerous builds = 0
set atom * x 0.0 y 0.0 z 0.0
Setting atom values ...
  14 settings made for x
  14 settings made for y
  14 settings made for z
change_box all     x final 0 5.638219740848163 y final 0 2.62708570345145 z final 0 16.029106697478717      xy final 0.32603423062213366 xz final -2.907051188519606e-16 yz final -4.058319204612301e-17 units box
Changing box ...
  triclinic box = (0 0 0) to (5.6382197 2.6270857 16.029107) with tilt (0.32603423 -2.9070512e-16 -4.0583192e-17)
  triclinic box = (0 0 0) to (5.6382197 2.6270857 16.029107) with tilt (0.32603423 -2.9070512e-16 -4.0583192e-17)
  triclinic box = (0 0 0) to (5.6382197 2.6270857 16.029107) with tilt (0.32603423 -2.9070512e-16 -4.0583192e-17)
  triclinic box = (0 0 0) to (5.6382197 2.6270857 16.029107) with tilt (0.32603423 -2.9070512e-16 -4.0583192e-17)
  triclinic box = (0 0 0) to (5.6382197 2.6270857 16.029107) with tilt (0.32603423 -2.9070512e-16 -4.0583192e-17)
  triclinic box = (0 0 0) to (5.6382197 2.6270857 16.029107) with tilt (0.32603423 -2.9070512e-16 -4.0583192e-17)
echo none
run 0
WARNING: No fixes with time integration, atoms won't move (src/verlet.cpp:60)
Per MPI rank memory allocation (min/avg/max) = 3.62 | 3.62 | 3.62 Mbytes
    PotEng          Pxx           E_mol          E_coul    
-2277.0566     -23973.784      0              0            
Loop time of 6.56e-07 on 1 procs for 0 steps with 14 atoms

152.4% CPU use with 1 MPI tasks x 1 OpenMP threads

MPI task timing breakdown:
Section |  min time  |  avg time  |  max time  |%varavg| %total
---------------------------------------------------------------
Pair    | 0          | 0          | 0          |   0.0 |  0.00
Neigh   | 0          | 0          | 0          |   0.0 |  0.00
Comm    | 0          | 0          | 0          |   0.0 |  0.00
Output  | 0          | 0          | 0          |   0.0 |  0.00
Modify  | 0          | 0          | 0          |   0.0 |  0.00
Other   |            | 6.56e-07   |            |       |100.00

Nlocal:             14 ave          14 max          14 min
Histogram: 1 0 0 0 0 0 0 0 0 0
Nghost:            734 ave         734 max         734 min
Histogram: 1 0 0 0 0 0 0 0 0 0
Neighs:            850 ave         850 max         850 min
Histogram: 1 0 0 0 0 0 0 0 0 0
FullNghs:         1700 ave        1700 max        1700 min
Histogram: 1 0 0 0 0 0 0 0 0 0

Total # of neighbors = 1700
Ave neighs/atom = 121.42857
Neighbor list builds = 0
Dangerous builds = 0
set atom * x 0.0 y 0.0 z 0.0
Setting atom values ...
  14 settings made for x
  14 settings made for y
  14 settings made for z
change_box all     x final 0 5.652287529941247 y final 0 2.6401203753662688 z final 0 15.623067529256064      xy final 0.33075186758052855 xz final 3.0874253018907916e-16 yz final -4.334795509846852e-14 units box
Changing box ...
  triclinic box = (0 0 0) to (5.6522875 2.6270857 16.029107) with tilt (0.32603423 -2.9070512e-16 -4.0583192e-17)
  triclinic box = (0 0 0) to (5.6522875 2.6401204 16.029107) with tilt (0.32603423 -2.9070512e-16 -4.0583192e-17)
  triclinic box = (0 0 0) to (5.6522875 2.6401204 15.623068) with tilt (0.32603423 -2.9070512e-16 -4.0583192e-17)
  triclinic box = (0 0 0) to (5.6522875 2.6401204 15.623068) with tilt (0.33075187 -2.9070512e-16 -4.0583192e-17)
  triclinic box = (0 0 0) to (5.6522875 2.6401204 15.623068) with tilt (0.33075187 3.0874253e-16 -4.0583192e-17)
  triclinic box = (0 0 0) to (5.6522875 2.6401204 15.623068) with tilt (0.33075187 3.0874253e-16 -4.3347955e-14)
echo none
run 0
WARNING: No fixes with time integration, atoms won't move (src/verlet.cpp:60)
Per MPI rank memory allocation (min/avg/max) = 3.62 | 3.62 | 3.62 Mbytes
    PotEng          Pxx           E_mol          E_coul    
-2277.1507     -15891.164      0              0            
Loop time of 6.32e-07 on 1 procs for 0 steps with 14 atoms

158.2% CPU use with 1 MPI tasks x 1 OpenMP threads

MPI task timing breakdown:
Section |  min time  |  avg time  |  max time  |%varavg| %total
---------------------------------------------------------------
Pair    | 0          | 0          | 0          |   0.0 |  0.00
Neigh   | 0          | 0          | 0          |   0.0 |  0.00
Comm    | 0          | 0          | 0          |   0.0 |  0.00
Output  | 0          | 0          | 0          |   0.0 |  0.00
Modify  | 0          | 0          | 0          |   0.0 |  0.00
Other   |            | 6.32e-07   |            |       |100.00

Nlocal:             14 ave          14 max          14 min
Histogram: 1 0 0 0 0 0 0 0 0 0
Nghost:            790 ave         790 max         790 min
Histogram: 1 0 0 0 0 0 0 0 0 0
Neighs:            874 ave         874 max         874 min
Histogram: 1 0 0 0 0 0 0 0 0 0
FullNghs:         1748 ave        1748 max        1748 min
Histogram: 1 0 0 0 0 0 0 0 0 0

Total # of neighbors = 1748
Ave neighs/atom = 124.85714
Neighbor list builds = 0
Dangerous builds = 0
set atom * x 0.0 y 0.0 z 0.0
Setting atom values ...
  14 settings made for x
  14 settings made for y
  14 settings made for z
change_box all     x final 0 5.652287529941249 y final 0 2.64012037536627 z final 0 15.623067529256064      xy final 0.3307518675805286 xz final 3.0874253018907906e-16 yz final -4.3347955098468504e-14 units box
Changing box ...
  triclinic box = (0 0 0) to (5.6522875 2.6401204 15.623068) with tilt (0.33075187 3.0874253e-16 -4.3347955e-14)
  triclinic box = (0 0 0) to (5.6522875 2.6401204 15.623068) with tilt (0.33075187 3.0874253e-16 -4.3347955e-14)
  triclinic box = (0 0 0) to (5.6522875 2.6401204 15.623068) with tilt (0.33075187 3.0874253e-16 -4.3347955e-14)
  triclinic box = (0 0 0) to (5.6522875 2.6401204 15.623068) with tilt (0.33075187 3.0874253e-16 -4.3347955e-14)
  triclinic box = (0 0 0) to (5.6522875 2.6401204 15.623068) with tilt (0.33075187 3.0874253e-16 -4.3347955e-14)
  triclinic box = (0 0 0) to (5.6522875 2.6401204 15.623068) with tilt (0.33075187 3.0874253e-16 -4.3347955e-14)
echo none
run 0
WARNING: No fixes with time integration, atoms won't move (src/verlet.cpp:60)
Per MPI rank memory allocation (min/avg/max) = 3.62 | 3.62 | 3.62 Mbytes
    PotEng          Pxx           E_mol          E_coul    
-2277.1507     -15891.164      0              0            
Loop time of 6.58e-07 on 1 procs for 0 steps with 14 atoms

152.0% CPU use with 1 MPI tasks x 1 OpenMP threads

MPI task timing breakdown:
Section |  min time  |  avg time  |  max time  |%varavg| %total
---------------------------------------------------------------
Pair    | 0          | 0          | 0          |   0.0 |  0.00
Neigh   | 0          | 0          | 0          |   0.0 |  0.00
Comm    | 0          | 0          | 0          |   0.0 |  0.00
Output  | 0          | 0          | 0          |   0.0 |  0.00
Modify  | 0          | 0          | 0          |   0.0 |  0.00
Other   |            | 6.58e-07   |            |       |100.00

Nlocal:             14 ave          14 max          14 min
Histogram: 1 0 0 0 0 0 0 0 0 0
Nghost:            790 ave         790 max         790 min
Histogram: 1 0 0 0 0 0 0 0 0 0
Neighs:            874 ave         874 max         874 min
Histogram: 1 0 0 0 0 0 0 0 0 0
FullNghs:         1748 ave        1748 max        1748 min
Histogram: 1 0 0 0 0 0 0 0 0 0

Total # of neighbors = 1748
Ave neighs/atom = 124.85714
Neighbor list builds = 0
Dangerous builds = 0
set atom * x 0.0 y 0.0 z 0.0
Setting atom values ...
  14 settings made for x
  14 settings made for y
  14 settings made for z
change_box all     x final 0 5.652287529941244 y final 0 2.6401203753662688 z final 0 15.623067529256064      xy final 0.3307518675805285 xz final 3.0874253018907966e-16 yz final -4.334795509846852e-14 units box
Changing box ...
  triclinic box = (0 0 0) to (5.6522875 2.6401204 15.623068) with tilt (0.33075187 3.0874253e-16 -4.3347955e-14)
  triclinic box = (0 0 0) to (5.6522875 2.6401204 15.623068) with tilt (0.33075187 3.0874253e-16 -4.3347955e-14)
  triclinic box = (0 0 0) to (5.6522875 2.6401204 15.623068) with tilt (0.33075187 3.0874253e-16 -4.3347955e-14)
  triclinic box = (0 0 0) to (5.6522875 2.6401204 15.623068) with tilt (0.33075187 3.0874253e-16 -4.3347955e-14)
  triclinic box = (0 0 0) to (5.6522875 2.6401204 15.623068) with tilt (0.33075187 3.0874253e-16 -4.3347955e-14)
  triclinic box = (0 0 0) to (5.6522875 2.6401204 15.623068) with tilt (0.33075187 3.0874253e-16 -4.3347955e-14)
echo none
run 0
WARNING: No fixes with time integration, atoms won't move (src/verlet.cpp:60)
Per MPI rank memory allocation (min/avg/max) = 3.62 | 3.62 | 3.62 Mbytes
    PotEng          Pxx           E_mol          E_coul    
-2277.1507     -15891.164      0              0            
Loop time of 6.33e-07 on 1 procs for 0 steps with 14 atoms

158.0% CPU use with 1 MPI tasks x 1 OpenMP threads

MPI task timing breakdown:
Section |  min time  |  avg time  |  max time  |%varavg| %total
---------------------------------------------------------------
Pair    | 0          | 0          | 0          |   0.0 |  0.00
Neigh   | 0          | 0          | 0          |   0.0 |  0.00
Comm    | 0          | 0          | 0          |   0.0 |  0.00
Output  | 0          | 0          | 0          |   0.0 |  0.00
Modify  | 0          | 0          | 0          |   0.0 |  0.00
Other   |            | 6.33e-07   |            |       |100.00

Nlocal:             14 ave          14 max          14 min
Histogram: 1 0 0 0 0 0 0 0 0 0
Nghost:            790 ave         790 max         790 min
Histogram: 1 0 0 0 0 0 0 0 0 0
Neighs:            874 ave         874 max         874 min
Histogram: 1 0 0 0 0 0 0 0 0 0
FullNghs:         1748 ave        1748 max        1748 min
Histogram: 1 0 0 0 0 0 0 0 0 0

Total # of neighbors = 1748
Ave neighs/atom = 124.85714
Neighbor list builds = 0
Dangerous builds = 0
set atom * x 0.0 y 0.0 z 0.0
Setting atom values ...
  14 settings made for x
  14 settings made for y
  14 settings made for z
change_box all     x final 0 5.658160376115426 y final 0 2.6374159325665243 z final 0 15.568654427279778      xy final 0.33930277198720515 xz final 2.2476002235700883e-16 yz final -4.3395915852628357e-14 units box
Changing box ...
  triclinic box = (0 0 0) to (5.6581604 2.6401204 15.623068) with tilt (0.33075187 3.0874253e-16 -4.3347955e-14)
  triclinic box = (0 0 0) to (5.6581604 2.6374159 15.623068) with tilt (0.33075187 3.0874253e-16 -4.3347955e-14)
  triclinic box = (0 0 0) to (5.6581604 2.6374159 15.568654) with tilt (0.33075187 3.0874253e-16 -4.3347955e-14)
  triclinic box = (0 0 0) to (5.6581604 2.6374159 15.568654) with tilt (0.33930277 3.0874253e-16 -4.3347955e-14)
  triclinic box = (0 0 0) to (5.6581604 2.6374159 15.568654) with tilt (0.33930277 2.2476002e-16 -4.3347955e-14)
  triclinic box = (0 0 0) to (5.6581604 2.6374159 15.568654) with tilt (0.33930277 2.2476002e-16 -4.3395916e-14)
echo none
run 0
WARNING: No fixes with time integration, atoms won't move (src/verlet.cpp:60)
Per MPI rank memory allocation (min/avg/max) = 3.62 | 3.62 | 3.62 Mbytes
    PotEng          Pxx           E_mol          E_coul    
-2277.3108     -19696.841      0              0            
Loop time of 6.29e-07 on 1 procs for 0 steps with 14 atoms

159.0% CPU use with 1 MPI tasks x 1 OpenMP threads

MPI task timing breakdown:
Section |  min time  |  avg time  |  max time  |%varavg| %total
---------------------------------------------------------------
Pair    | 0          | 0          | 0          |   0.0 |  0.00
Neigh   | 0          | 0          | 0          |   0.0 |  0.00
Comm    | 0          | 0          | 0          |   0.0 |  0.00
Output  | 0          | 0          | 0          |   0.0 |  0.00
Modify  | 0          | 0          | 0          |   0.0 |  0.00
Other   |            | 6.29e-07   |            |       |100.00

Nlocal:             14 ave          14 max          14 min
Histogram: 1 0 0 0 0 0 0 0 0 0
Nghost:            790 ave         790 max         790 min
Histogram: 1 0 0 0 0 0 0 0 0 0
Neighs:            878 ave         878 max         878 min
Histogram: 1 0 0 0 0 0 0 0 0 0
FullNghs:         1756 ave        1756 max        1756 min
Histogram: 1 0 0 0 0 0 0 0 0 0

Total # of neighbors = 1756
Ave neighs/atom = 125.42857
Neighbor list builds = 0
Dangerous builds = 0
set atom * x 0.0 y 0.0 z 0.0
Setting atom values ...
  14 settings made for x
  14 settings made for y
  14 settings made for z
change_box all     x final 0 5.664067018417763 y final 0 2.6347013778213424 z final 0 15.514430839024866      xy final 0.3478386369320249 xz final 1.4421084644904218e-16 yz final -4.344382610655853e-14 units box
Changing box ...
  triclinic box = (0 0 0) to (5.664067 2.6374159 15.568654) with tilt (0.33930277 2.2476002e-16 -4.3395916e-14)
  triclinic box = (0 0 0) to (5.664067 2.6347014 15.568654) with tilt (0.33930277 2.2476002e-16 -4.3395916e-14)
  triclinic box = (0 0 0) to (5.664067 2.6347014 15.514431) with tilt (0.33930277 2.2476002e-16 -4.3395916e-14)
  triclinic box = (0 0 0) to (5.664067 2.6347014 15.514431) with tilt (0.34783864 2.2476002e-16 -4.3395916e-14)
  triclinic box = (0 0 0) to (5.664067 2.6347014 15.514431) with tilt (0.34783864 1.4421085e-16 -4.3395916e-14)
  triclinic box = (0 0 0) to (5.664067 2.6347014 15.514431) with tilt (0.34783864 1.4421085e-16 -4.3443826e-14)
echo none
run 0
WARNING: No fixes with time integration, atoms won't move (src/verlet.cpp:60)
Per MPI rank memory allocation (min/avg/max) = 3.62 | 3.62 | 3.62 Mbytes
    PotEng          Pxx           E_mol          E_coul    
-2277.4456     -22964.361      0              0            
Loop time of 6.48e-07 on 1 procs for 0 steps with 14 atoms

154.3% CPU use with 1 MPI tasks x 1 OpenMP threads

MPI task timing breakdown:
Section |  min time  |  avg time  |  max time  |%varavg| %total
---------------------------------------------------------------
Pair    | 0          | 0          | 0          |   0.0 |  0.00
Neigh   | 0          | 0          | 0          |   0.0 |  0.00
Comm    | 0          | 0          | 0          |   0.0 |  0.00
Output  | 0          | 0          | 0          |   0.0 |  0.00
Modify  | 0          | 0          | 0          |   0.0 |  0.00
Other   |            | 6.48e-07   |            |       |100.00

Nlocal:             14 ave          14 max          14 min
Histogram: 1 0 0 0 0 0 0 0 0 0
Nghost:            790 ave         790 max         790 min
Histogram: 1 0 0 0 0 0 0 0 0 0
Neighs:            886 ave         886 max         886 min
Histogram: 1 0 0 0 0 0 0 0 0 0
FullNghs:         1772 ave        1772 max        1772 min
Histogram: 1 0 0 0 0 0 0 0 0 0

Total # of neighbors = 1772
Ave neighs/atom = 126.57143
Neighbor list builds = 0
Dangerous builds = 0
set atom * x 0.0 y 0.0 z 0.0
Setting atom values ...
  14 settings made for x
  14 settings made for y
  14 settings made for z
change_box all     x final 0 5.664067018417767 y final 0 2.6347013778213424 z final 0 15.514430839024865      xy final 0.3478386369320249 xz final 1.4421084644903925e-16 yz final -4.344382610655853e-14 units box
Changing box ...
  triclinic box = (0 0 0) to (5.664067 2.6347014 15.514431) with tilt (0.34783864 1.4421085e-16 -4.3443826e-14)
  triclinic box = (0 0 0) to (5.664067 2.6347014 15.514431) with tilt (0.34783864 1.4421085e-16 -4.3443826e-14)
  triclinic box = (0 0 0) to (5.664067 2.6347014 15.514431) with tilt (0.34783864 1.4421085e-16 -4.3443826e-14)
  triclinic box = (0 0 0) to (5.664067 2.6347014 15.514431) with tilt (0.34783864 1.4421085e-16 -4.3443826e-14)
  triclinic box = (0 0 0) to (5.664067 2.6347014 15.514431) with tilt (0.34783864 1.4421085e-16 -4.3443826e-14)
  triclinic box = (0 0 0) to (5.664067 2.6347014 15.514431) with tilt (0.34783864 1.4421085e-16 -4.3443826e-14)
echo none
run 0
WARNING: No fixes with time integration, atoms won't move (src/verlet.cpp:60)
Per MPI rank memory allocation (min/avg/max) = 3.62 | 3.62 | 3.62 Mbytes
    PotEng          Pxx           E_mol          E_coul    
-2277.4456     -22964.361      0              0            
Loop time of 6.33e-07 on 1 procs for 0 steps with 14 atoms

158.0% CPU use with 1 MPI tasks x 1 OpenMP threads

MPI task timing breakdown:
Section |  min time  |  avg time  |  max time  |%varavg| %total
---------------------------------------------------------------
Pair    | 0          | 0          | 0          |   0.0 |  0.00
Neigh   | 0          | 0          | 0          |   0.0 |  0.00
Comm    | 0          | 0          | 0          |   0.0 |  0.00
Output  | 0          | 0          | 0          |   0.0 |  0.00
Modify  | 0          | 0          | 0          |   0.0 |  0.00
Other   |            | 6.33e-07   |            |       |100.00

Nlocal:             14 ave          14 max          14 min
Histogram: 1 0 0 0 0 0 0 0 0 0
Nghost:            790 ave         790 max         790 min
Histogram: 1 0 0 0 0 0 0 0 0 0
Neighs:            886 ave         886 max         886 min
Histogram: 1 0 0 0 0 0 0 0 0 0
FullNghs:         1772 ave        1772 max        1772 min
Histogram: 1 0 0 0 0 0 0 0 0 0

Total # of neighbors = 1772
Ave neighs/atom = 126.57143
Neighbor list builds = 0
Dangerous builds = 0
set atom * x 0.0 y 0.0 z 0.0
[...]
Histogram: 1 0 0 0 0 0 0 0 0 0
Neighs:            412 ave         412 max         412 min
Histogram: 1 0 0 0 0 0 0 0 0 0
FullNghs:          824 ave         824 max         824 min
Histogram: 1 0 0 0 0 0 0 0 0 0

Total # of neighbors = 824
Ave neighs/atom = 103
Neighbor list builds = 0
Dangerous builds = 0
set atom * x 0.0 y 0.0 z 0.0
Setting atom values ...
  8 settings made for x
  8 settings made for y
  8 settings made for z
change_box all     x final 0 5.616270574938861 y final 0 5.481562128455577 z final 0 5.61627057493886      xy final 8.252460945735175e-52 xz final -8.757775139489441e-36 yz final 4.183882503273155e-16 units box
Changing box ...
  triclinic box = (0 0 0) to (5.6162706 5.4188404 5.5399546) with tilt (8.8706233e-52 -1.0253589e-35 4.129188e-16)
  triclinic box = (0 0 0) to (5.6162706 5.4815621 5.5399546) with tilt (8.8706233e-52 -1.0253589e-35 4.129188e-16)
  triclinic box = (0 0 0) to (5.6162706 5.4815621 5.6162706) with tilt (8.8706233e-52 -1.0253589e-35 4.129188e-16)
  triclinic box = (0 0 0) to (5.6162706 5.4815621 5.6162706) with tilt (8.2524609e-52 -1.0253589e-35 4.129188e-16)
  triclinic box = (0 0 0) to (5.6162706 5.4815621 5.6162706) with tilt (8.2524609e-52 -8.7577751e-36 4.129188e-16)
  triclinic box = (0 0 0) to (5.6162706 5.4815621 5.6162706) with tilt (8.2524609e-52 -8.7577751e-36 4.1838825e-16)
echo none
run 0
Per MPI rank memory allocation (min/avg/max) = 3.612 | 3.612 | 3.612 Mbytes
    PotEng          Pxx           E_mol          E_coul    
-1300.3858     -9389.8282      0              0            
Loop time of 6.07e-07 on 1 procs for 0 steps with 8 atoms

164.7% CPU use with 1 MPI tasks x 1 OpenMP threads

MPI task timing breakdown:
Section |  min time  |  avg time  |  max time  |%varavg| %total
---------------------------------------------------------------
Pair    | 0          | 0          | 0          |   0.0 |  0.00
Neigh   | 0          | 0          | 0          |   0.0 |  0.00
Comm    | 0          | 0          | 0          |   0.0 |  0.00
Output  | 0          | 0          | 0          |   0.0 |  0.00
Modify  | 0          | 0          | 0          |   0.0 |  0.00
Other   |            | 6.07e-07   |            |       |100.00

Nlocal:              8 ave           8 max           8 min
Histogram: 1 0 0 0 0 0 0 0 0 0
Nghost:            440 ave         440 max         440 min
Histogram: 1 0 0 0 0 0 0 0 0 0
Neighs:            404 ave         404 max         404 min
Histogram: 1 0 0 0 0 0 0 0 0 0
FullNghs:          808 ave         808 max         808 min
Histogram: 1 0 0 0 0 0 0 0 0 0

Total # of neighbors = 808
Ave neighs/atom = 101
Neighbor list builds = 0
Dangerous builds = 0
set atom * x 0.0 y 0.0 z 0.0
Setting atom values ...
  8 settings made for x
  8 settings made for y
  8 settings made for z
change_box all     x final 0 5.565589567356958 y final 0 5.565438332670736 z final 0 5.565589567356956      xy final 8.488510041818058e-52 xz final -8.946651349539027e-36 yz final 4.249713608397305e-16 units box
Changing box ...
  triclinic box = (0 0 0) to (5.5655896 5.4815621 5.6162706) with tilt (8.2524609e-52 -8.7577751e-36 4.1838825e-16)
  triclinic box = (0 0 0) to (5.5655896 5.5654383 5.6162706) with tilt (8.2524609e-52 -8.7577751e-36 4.1838825e-16)
  triclinic box = (0 0 0) to (5.5655896 5.5654383 5.5655896) with tilt (8.2524609e-52 -8.7577751e-36 4.1838825e-16)
  triclinic box = (0 0 0) to (5.5655896 5.5654383 5.5655896) with tilt (8.48851e-52 -8.7577751e-36 4.1838825e-16)
  triclinic box = (0 0 0) to (5.5655896 5.5654383 5.5655896) with tilt (8.48851e-52 -8.9466513e-36 4.1838825e-16)
  triclinic box = (0 0 0) to (5.5655896 5.5654383 5.5655896) with tilt (8.48851e-52 -8.9466513e-36 4.2497136e-16)
echo none
run 0
Per MPI rank memory allocation (min/avg/max) = 3.612 | 3.612 | 3.612 Mbytes
    PotEng          Pxx           E_mol          E_coul    
-1300.3933      3710.245       0              0            
Loop time of 6.09e-07 on 1 procs for 0 steps with 8 atoms

164.2% CPU use with 1 MPI tasks x 1 OpenMP threads

MPI task timing breakdown:
Section |  min time  |  avg time  |  max time  |%varavg| %total
---------------------------------------------------------------
Pair    | 0          | 0          | 0          |   0.0 |  0.00
Neigh   | 0          | 0          | 0          |   0.0 |  0.00
Comm    | 0          | 0          | 0          |   0.0 |  0.00
Output  | 0          | 0          | 0          |   0.0 |  0.00
Modify  | 0          | 0          | 0          |   0.0 |  0.00
Other   |            | 6.09e-07   |            |       |100.00

Nlocal:              8 ave           8 max           8 min
Histogram: 1 0 0 0 0 0 0 0 0 0
Nghost:            440 ave         440 max         440 min
Histogram: 1 0 0 0 0 0 0 0 0 0
Neighs:            404 ave         404 max         404 min
Histogram: 1 0 0 0 0 0 0 0 0 0
FullNghs:          808 ave         808 max         808 min
Histogram: 1 0 0 0 0 0 0 0 0 0

Total # of neighbors = 808
Ave neighs/atom = 101
Neighbor list builds = 0
Dangerous builds = 0
set atom * x 0.0 y 0.0 z 0.0
Setting atom values ...
  8 settings made for x
  8 settings made for y
  8 settings made for z
change_box all     x final 0 5.5836941687370985 y final 0 5.535241633291592 z final 0 5.583694168737097      xy final 8.376901536541488e-52 xz final -8.840581575436711e-36 yz final 4.2601809600338114e-16 units box
Changing box ...
  triclinic box = (0 0 0) to (5.5836942 5.5654383 5.5655896) with tilt (8.48851e-52 -8.9466513e-36 4.2497136e-16)
  triclinic box = (0 0 0) to (5.5836942 5.5352416 5.5655896) with tilt (8.48851e-52 -8.9466513e-36 4.2497136e-16)
  triclinic box = (0 0 0) to (5.5836942 5.5352416 5.5836942) with tilt (8.48851e-52 -8.9466513e-36 4.2497136e-16)
  triclinic box = (0 0 0) to (5.5836942 5.5352416 5.5836942) with tilt (8.3769015e-52 -8.9466513e-36 4.2497136e-16)
  triclinic box = (0 0 0) to (5.5836942 5.5352416 5.5836942) with tilt (8.3769015e-52 -8.8405816e-36 4.2497136e-16)
  triclinic box = (0 0 0) to (5.5836942 5.5352416 5.5836942) with tilt (8.3769015e-52 -8.8405816e-36 4.260181e-16)
echo none
run 0
Per MPI rank memory allocation (min/avg/max) = 3.612 | 3.612 | 3.612 Mbytes
    PotEng          Pxx           E_mol          E_coul    
-1300.3961     -1335.3594      0              0            
Loop time of 6.29e-07 on 1 procs for 0 steps with 8 atoms

159.0% CPU use with 1 MPI tasks x 1 OpenMP threads

MPI task timing breakdown:
Section |  min time  |  avg time  |  max time  |%varavg| %total
---------------------------------------------------------------
Pair    | 0          | 0          | 0          |   0.0 |  0.00
Neigh   | 0          | 0          | 0          |   0.0 |  0.00
Comm    | 0          | 0          | 0          |   0.0 |  0.00
Output  | 0          | 0          | 0          |   0.0 |  0.00
Modify  | 0          | 0          | 0          |   0.0 |  0.00
Other   |            | 6.29e-07   |            |       |100.00

Nlocal:              8 ave           8 max           8 min
Histogram: 1 0 0 0 0 0 0 0 0 0
Nghost:            440 ave         440 max         440 min
Histogram: 1 0 0 0 0 0 0 0 0 0
Neighs:            404 ave         404 max         404 min
Histogram: 1 0 0 0 0 0 0 0 0 0
FullNghs:          808 ave         808 max         808 min
Histogram: 1 0 0 0 0 0 0 0 0 0

Total # of neighbors = 808
Ave neighs/atom = 101
Neighbor list builds = 0
Dangerous builds = 0
set atom * x 0.0 y 0.0 z 0.0
Setting atom values ...
  8 settings made for x
  8 settings made for y
  8 settings made for z
change_box all     x final 0 5.58969202231309 y final 0 5.478518054675819 z final 0 5.589692022313089      xy final 8.078880161941153e-52 xz final -8.715488092225324e-36 yz final 4.272347740016769e-16 units box
Changing box ...
  triclinic box = (0 0 0) to (5.589692 5.5352416 5.5836942) with tilt (8.3769015e-52 -8.8405816e-36 4.260181e-16)
  triclinic box = (0 0 0) to (5.589692 5.4785181 5.5836942) with tilt (8.3769015e-52 -8.8405816e-36 4.260181e-16)
  triclinic box = (0 0 0) to (5.589692 5.4785181 5.589692) with tilt (8.3769015e-52 -8.8405816e-36 4.260181e-16)
  triclinic box = (0 0 0) to (5.589692 5.4785181 5.589692) with tilt (8.0788802e-52 -8.8405816e-36 4.260181e-16)
  triclinic box = (0 0 0) to (5.589692 5.4785181 5.589692) with tilt (8.0788802e-52 -8.7154881e-36 4.260181e-16)
  triclinic box = (0 0 0) to (5.589692 5.4785181 5.589692) with tilt (8.0788802e-52 -8.7154881e-36 4.2723477e-16)
echo none
run 0
Per MPI rank memory allocation (min/avg/max) = 3.612 | 3.612 | 3.612 Mbytes
    PotEng          Pxx           E_mol          E_coul    
-1300.3981      2461.706       0              0            
Loop time of 6.21e-07 on 1 procs for 0 steps with 8 atoms

161.0% CPU use with 1 MPI tasks x 1 OpenMP threads

MPI task timing breakdown:
Section |  min time  |  avg time  |  max time  |%varavg| %total
---------------------------------------------------------------
Pair    | 0          | 0          | 0          |   0.0 |  0.00
Neigh   | 0          | 0          | 0          |   0.0 |  0.00
Comm    | 0          | 0          | 0          |   0.0 |  0.00
Output  | 0          | 0          | 0          |   0.0 |  0.00
Modify  | 0          | 0          | 0          |   0.0 |  0.00
Other   |            | 6.21e-07   |            |       |100.00

Nlocal:              8 ave           8 max           8 min
Histogram: 1 0 0 0 0 0 0 0 0 0
Nghost:            440 ave         440 max         440 min
Histogram: 1 0 0 0 0 0 0 0 0 0
Neighs:            404 ave         404 max         404 min
Histogram: 1 0 0 0 0 0 0 0 0 0
FullNghs:          808 ave         808 max         808 min
Histogram: 1 0 0 0 0 0 0 0 0 0

Total # of neighbors = 808
Ave neighs/atom = 101
Neighbor list builds = 0
Dangerous builds = 0
set atom * x 0.0 y 0.0 z 0.0
Setting atom values ...
  8 settings made for x
  8 settings made for y
  8 settings made for z
change_box all     x final 0 5.587265750814197 y final 0 5.501386387295013 z final 0 5.587265750814195      xy final 7.283136367913345e-52 xz final -8.173462062376872e-36 yz final 4.2938507590042054e-16 units box
Changing box ...
  triclinic box = (0 0 0) to (5.5872658 5.4785181 5.589692) with tilt (8.0788802e-52 -8.7154881e-36 4.2723477e-16)
  triclinic box = (0 0 0) to (5.5872658 5.5013864 5.589692) with tilt (8.0788802e-52 -8.7154881e-36 4.2723477e-16)
  triclinic box = (0 0 0) to (5.5872658 5.5013864 5.5872658) with tilt (8.0788802e-52 -8.7154881e-36 4.2723477e-16)
  triclinic box = (0 0 0) to (5.5872658 5.5013864 5.5872658) with tilt (7.2831364e-52 -8.7154881e-36 4.2723477e-16)
  triclinic box = (0 0 0) to (5.5872658 5.5013864 5.5872658) with tilt (7.2831364e-52 -8.1734621e-36 4.2723477e-16)
  triclinic box = (0 0 0) to (5.5872658 5.5013864 5.5872658) with tilt (7.2831364e-52 -8.1734621e-36 4.2938508e-16)
echo none
run 0
Per MPI rank memory allocation (min/avg/max) = 3.612 | 3.612 | 3.612 Mbytes
    PotEng          Pxx           E_mol          E_coul    
-1300.3995      883.03941      0              0            
Loop time of 6.4e-07 on 1 procs for 0 steps with 8 atoms

156.2% CPU use with 1 MPI tasks x 1 OpenMP threads

MPI task timing breakdown:
Section |  min time  |  avg time  |  max time  |%varavg| %total
---------------------------------------------------------------
Pair    | 0          | 0          | 0          |   0.0 |  0.00
Neigh   | 0          | 0          | 0          |   0.0 |  0.00
Comm    | 0          | 0          | 0          |   0.0 |  0.00
Output  | 0          | 0          | 0          |   0.0 |  0.00
Modify  | 0          | 0          | 0          |   0.0 |  0.00
Other   |            | 6.4e-07    |            |       |100.00

Nlocal:              8 ave           8 max           8 min
Histogram: 1 0 0 0 0 0 0 0 0 0
Nghost:            440 ave         440 max         440 min
Histogram: 1 0 0 0 0 0 0 0 0 0
Neighs:            404 ave         404 max         404 min
Histogram: 1 0 0 0 0 0 0 0 0 0
FullNghs:          808 ave         808 max         808 min
Histogram: 1 0 0 0 0 0 0 0 0 0

Total # of neighbors = 808
Ave neighs/atom = 101
Neighbor list builds = 0
Dangerous builds = 0
set atom * x 0.0 y 0.0 z 0.0
Setting atom values ...
  8 settings made for x
  8 settings made for y
  8 settings made for z
change_box all     x final 0 5.587784348421435 y final 0 5.506600362654359 z final 0 5.587784348421433      xy final 7.288914622572545e-52 xz final -8.172116823761949e-36 yz final 4.292239948840503e-16 units box
Changing box ...
  triclinic box = (0 0 0) to (5.5877843 5.5013864 5.5872658) with tilt (7.2831364e-52 -8.1734621e-36 4.2938508e-16)
  triclinic box = (0 0 0) to (5.5877843 5.5066004 5.5872658) with tilt (7.2831364e-52 -8.1734621e-36 4.2938508e-16)
  triclinic box = (0 0 0) to (5.5877843 5.5066004 5.5877843) with tilt (7.2831364e-52 -8.1734621e-36 4.2938508e-16)
  triclinic box = (0 0 0) to (5.5877843 5.5066004 5.5877843) with tilt (7.2889146e-52 -8.1734621e-36 4.2938508e-16)
  triclinic box = (0 0 0) to (5.5877843 5.5066004 5.5877843) with tilt (7.2889146e-52 -8.1721168e-36 4.2938508e-16)
  triclinic box = (0 0 0) to (5.5877843 5.5066004 5.5877843) with tilt (7.2889146e-52 -8.1721168e-36 4.2922399e-16)
echo none
run 0
Per MPI rank memory allocation (min/avg/max) = 3.612 | 3.612 | 3.612 Mbytes
    PotEng          Pxx           E_mol          E_coul    
-1300.3999      259.20849      0              0            
Loop time of 7.09e-07 on 1 procs for 0 steps with 8 atoms

282.1% CPU use with 1 MPI tasks x 1 OpenMP threads

MPI task timing breakdown:
Section |  min time  |  avg time  |  max time  |%varavg| %total
---------------------------------------------------------------
Pair    | 0          | 0          | 0          |   0.0 |  0.00
Neigh   | 0          | 0          | 0          |   0.0 |  0.00
Comm    | 0          | 0          | 0          |   0.0 |  0.00
Output  | 0          | 0          | 0          |   0.0 |  0.00
Modify  | 0          | 0          | 0          |   0.0 |  0.00
Other   |            | 7.09e-07   |            |       |100.00

Nlocal:              8 ave           8 max           8 min
Histogram: 1 0 0 0 0 0 0 0 0 0
Nghost:            440 ave         440 max         440 min
Histogram: 1 0 0 0 0 0 0 0 0 0
Neighs:            404 ave         404 max         404 min
Histogram: 1 0 0 0 0 0 0 0 0 0
FullNghs:          808 ave         808 max         808 min
Histogram: 1 0 0 0 0 0 0 0 0 0

Total # of neighbors = 808
Ave neighs/atom = 101
Neighbor list builds = 0
Dangerous builds = 0
set atom * x 0.0 y 0.0 z 0.0
Setting atom values ...
  8 settings made for x
  8 settings made for y
  8 settings made for z
change_box all     x final 0 5.20573 y final 0 5.20573 z final 0 14.793269999999994      xy final 3.1875902908626754e-16 xz final 9.058265377211266e-16 yz final 2.0171898898335124e-30 units box
Changing box ...
  triclinic box = (0 0 0) to (5.20573 5.5066004 5.5877843) with tilt (7.2889146e-52 -8.1721168e-36 4.2922399e-16)
  triclinic box = (0 0 0) to (5.20573 5.20573 5.5877843) with tilt (7.2889146e-52 -8.1721168e-36 4.2922399e-16)
  triclinic box = (0 0 0) to (5.20573 5.20573 14.79327) with tilt (7.2889146e-52 -8.1721168e-36 4.2922399e-16)
  triclinic box = (0 0 0) to (5.20573 5.20573 14.79327) with tilt (3.1875903e-16 -8.1721168e-36 4.2922399e-16)
  triclinic box = (0 0 0) to (5.20573 5.20573 14.79327) with tilt (3.1875903e-16 9.0582654e-16 4.2922399e-16)
  triclinic box = (0 0 0) to (5.20573 5.20573 14.79327) with tilt (3.1875903e-16 9.0582654e-16 2.0171899e-30)
echo none
Created 12 atoms
  using lattice units in triclinic box = (0 0 0) to (5.20573 5.20573 14.79327) with tilt (3.1875903e-16 9.0582654e-16 2.0171899e-30)
  create_atoms CPU = 0.000 seconds
Setting atom values ...
  1 settings made for type
Setting atom values ...
  1 settings made for type
Setting atom values ...
  1 settings made for type
Setting atom values ...
  1 settings made for type
Setting atom values ...
  1 settings made for type
Setting atom values ...
  1 settings made for type
Setting atom values ...
  1 settings made for type
Setting atom values ...
  1 settings made for type
Setting atom values ...
  1 settings made for type
Setting atom values ...
  1 settings made for type
Setting atom values ...
  1 settings made for type
Setting atom values ...
  1 settings made for type
run 0
Per MPI rank memory allocation (min/avg/max) = 3.605 | 3.605 | 3.605 Mbytes
    PotEng          Pxx           E_mol          E_coul    
-3125.3354      571159.07      0              0            
Loop time of 6.79e-07 on 1 procs for 0 steps with 20 atoms

147.3% CPU use with 1 MPI tasks x 1 OpenMP threads

MPI task timing breakdown:
Section |  min time  |  avg time  |  max time  |%varavg| %total
---------------------------------------------------------------
Pair    | 0          | 0          | 0          |   0.0 |  0.00
Neigh   | 0          | 0          | 0          |   0.0 |  0.00
Comm    | 0          | 0          | 0          |   0.0 |  0.00
Output  | 0          | 0          | 0          |   0.0 |  0.00
Modify  | 0          | 0          | 0          |   0.0 |  0.00
Other   |            | 6.79e-07   |            |       |100.00

Nlocal:             20 ave          20 max          20 min
Histogram: 1 0 0 0 0 0 0 0 0 0
Nghost:            684 ave         684 max         684 min
Histogram: 1 0 0 0 0 0 0 0 0 0
Neighs:           1086 ave        1086 max        1086 min
Histogram: 1 0 0 0 0 0 0 0 0 0
FullNghs:         2172 ave        2172 max        2172 min
Histogram: 1 0 0 0 0 0 0 0 0 0

Total # of neighbors = 2172
Ave neighs/atom = 108.6
Neighbor list builds = 0
Dangerous builds = 0
set atom * x 0.0 y 0.0 z 0.0
Setting atom values ...
  20 settings made for x
  20 settings made for y
  20 settings made for z
change_box all     x final 0 5.280661222260418 y final 0 5.321253425247034 z final 0 15.73623330308882      xy final 3.258327987340334e-16 xz final 1.3721000413900575e-15 yz final -5.950008167455707e-16 units box
Changing box ...
  triclinic box = (0 0 0) to (5.2806612 5.20573 14.79327) with tilt (3.1875903e-16 9.0582654e-16 2.0171899e-30)
  triclinic box = (0 0 0) to (5.2806612 5.3212534 14.79327) with tilt (3.1875903e-16 9.0582654e-16 2.0171899e-30)
  triclinic box = (0 0 0) to (5.2806612 5.3212534 15.736233) with tilt (3.1875903e-16 9.0582654e-16 2.0171899e-30)
  triclinic box = (0 0 0) to (5.2806612 5.3212534 15.736233) with tilt (3.258328e-16 9.0582654e-16 2.0171899e-30)
  triclinic box = (0 0 0) to (5.2806612 5.3212534 15.736233) with tilt (3.258328e-16 1.3721e-15 2.0171899e-30)
  triclinic box = (0 0 0) to (5.2806612 5.3212534 15.736233) with tilt (3.258328e-16 1.3721e-15 -5.9500082e-16)
echo none
run 0
Per MPI rank memory allocation (min/avg/max) = 3.605 | 3.605 | 3.605 Mbytes
    PotEng          Pxx           E_mol          E_coul    
-3168.2318      389544.3       0              0            
Loop time of 6.36e-07 on 1 procs for 0 steps with 20 atoms

157.2% CPU use with 1 MPI tasks x 1 OpenMP threads

MPI task timing breakdown:
Section |  min time  |  avg time  |  max time  |%varavg| %total
---------------------------------------------------------------
Pair    | 0          | 0          | 0          |   0.0 |  0.00
Neigh   | 0          | 0          | 0          |   0.0 |  0.00
Comm    | 0          | 0          | 0          |   0.0 |  0.00
Output  | 0          | 0          | 0          |   0.0 |  0.00
Modify  | 0          | 0          | 0          |   0.0 |  0.00
Other   |            | 6.36e-07   |            |       |100.00

Nlocal:             20 ave          20 max          20 min
Histogram: 1 0 0 0 0 0 0 0 0 0
Nghost:            684 ave         684 max         684 min
Histogram: 1 0 0 0 0 0 0 0 0 0
Neighs:            954 ave         954 max         954 min
Histogram: 1 0 0 0 0 0 0 0 0 0
FullNghs:         1908 ave        1908 max        1908 min
Histogram: 1 0 0 0 0 0 0 0 0 0

Total # of neighbors = 1908
Ave neighs/atom = 95.4
Neighbor list builds = 0
Dangerous builds = 0
Total wall time: 0:00:14
