14
Lattice="5.723085774552625 0.6947962532844478 -3.943214263059669e-15 0.3469474351584231 2.583041463248906 -4.331584697273508e-15 7.228730270302611e-15 2.4436940506673684e-14 15.121655684809014" Properties=species:S:1:pos:R:3:forces:R:3 unique_starting_index=0 config_type=initial n_minim_iter=12 energy=-2278.9258005473434 stress="-0.00020276608590133534 -4.528429719236854e-05 -4.277461504371052e-16 -4.528429719236854e-05 0.00011185750286617003 4.275541111935831e-17 -4.277461504371052e-16 4.275541111935831e-17 -0.00010507004326742287" free_energy=-2278.9258005473434 pbc="T T T"
Si       1.93148855       1.93179102      12.03061769      -0.00144380       0.00250126       0.00277826
Si       1.10352806      -0.29287216       4.46978985       0.00144380      -0.00250126       0.00277826
Si       4.13854466       1.34604669       3.09103799       0.00144380      -0.00250126      -0.00277826
Si       4.96650515       3.57070988      10.65186583      -0.00144380       0.00250126      -0.00277826
Si       4.66307586       0.90372780       5.46306782      -0.00077788      -0.00201323      -0.00114942
Si       4.09502652       1.42998731      13.02389566       0.00077788       0.00201323      -0.00114942
Si       1.40695735       2.37410992       9.65858787       0.00077788       0.00201323       0.00114942
Si       1.97500669       1.84785041       2.09776002      -0.00077788      -0.00201323       0.00114942
Si       2.43915575       1.25595288       6.48688072       0.00342545      -0.00840743       0.00385179
Si       0.59586085       0.38296598      14.04770856      -0.00342545       0.00840743       0.00385179
Si       3.63087746       2.02188484       8.63477496      -0.00342545       0.00840743      -0.00385179
Si       5.47417236       2.89487174       1.07394712       0.00342545      -0.00840743      -0.00385179
Si       2.86154289       0.34739813       0.00000000      -0.00000000       0.00000000      -0.00000000
Si       0.17347372       1.29152073       7.56082784       0.00000000      -0.00000000       0.00000000
