8
Lattice="5.587784348421435 -2.1824479006959957e-51 2.2837775182025816e-35 7.287075073315068e-52 5.506600362654359 -2.6233585254567623e-16 -8.167909451832307e-36 4.292239948840503e-16 5.587784348421434" Properties=species:S:1:pos:R:3:forces:R:3 unique_starting_index=2 config_type=initial n_minim_iter=12 energy=-1300.3998784593134 stress="-0.0001617852166768673 7.224044501041119e-17 5.549196194933819e-17 7.224044501041119e-17 -7.406267243056079e-05 3.667110634564811e-16 5.549196194933819e-17 3.667110634564811e-16 -0.00016178521667820864" free_energy=-1300.3998784593134 pbc="T T T"
Si       2.79460081       1.50818032       3.95287310      -0.00348719      -0.00239050      -0.00405663
Si       2.79420190       1.50818032       1.63404123       0.00348719      -0.00239050       0.00405663
Si       3.95381729       3.99844721       2.79325771      -0.00405663       0.00239050       0.00348719
Si       1.63498542       3.99844721       2.79365662       0.00405663       0.00239050      -0.00348719
Si       5.58809408       3.99844721       1.15898093       0.00348719       0.00239050      -0.00405663
Si       0.00070863       3.99844721       4.42793340      -0.00348719       0.00239050       0.00405663
Si       4.42887759       1.50818032       5.58714988       0.00405663      -0.00239050       0.00348719
Si       1.15992512       1.50818032      -0.00023556      -0.00405663      -0.00239050      -0.00348719
