8
Lattice="6.100850587797423 0.0 0.0 0.0 4.591616437349578 -2.7759329372683e-16 0.0 3.6883638524900937e-16 6.100850587797423" Properties=species:S:1:pos:R:3:forces:R:3 unique_starting_index=2 config_type=initial n_minim_iter=1 energy=-1299.3009370060588 stress="-0.0004349502930096612 1.9484738618535275e-16 1.6628411546616215e-16 1.9484738618535275e-16 -0.0035765530288059295 3.378261464378469e-16 1.6628411546616215e-16 3.378261464378469e-16 -0.00043495029301003006" free_energy=-1299.3009370060588 pbc="T T T"
Si       3.18010883       1.42826092       4.23057191      -0.52033421      -0.71903691       0.37150799
Si       2.92185362       1.42826092       1.86932877       0.52033421      -0.71903691      -0.37150799
Si       4.23160280       3.16337817       2.92082274       0.37150799       0.71903691       0.52033421
Si       1.87035965       3.16337817       3.17907795      -0.37150799       0.71903691      -0.52033421
Si       5.97227892       3.16337817       1.18014662       0.52033421       0.71903691       0.37150799
Si       0.12968354       3.16337817       4.91975406      -0.52033421       0.71903691      -0.37150799
Si       4.92078495       1.42826092       5.97124803      -0.37150799      -0.71903691       0.52033421
Si       1.18117751       1.42826092       0.12865265       0.37150799      -0.71903691      -0.52033421
8
Lattice="6.11973283643239 3.459250054266708e-81 -4.810056386222209e-65 9.387102648809438e-81 4.709787818206994 -2.8407990691287162e-16 -9.620112772444419e-65 3.7085171749730746e-16 6.11973283643239" Properties=species:S:1:pos:R:3:forces:R:3 unique_starting_index=2 config_type=initial n_minim_iter=2 energy=-1299.4915600540648 stress="0.018069359514511843 -3.7608138597775667e-17 -2.527263963341242e-16 -3.7608138597775667e-17 0.018645794056488085 3.595589819912862e-17 -2.527263963341242e-16 3.595589819912862e-17 0.01806935951451346" free_energy=-1299.4915600540648 pbc="T T T"
Si       3.16825279       1.43435765       4.25915793      -0.55004028      -0.32486579       0.09004256
Si       2.95259536       1.43435765       1.85962206       0.55004028      -0.32486579      -0.09004256
Si       4.26019201       3.27545341       2.95156128       0.09004256       0.32486579       0.55004028
Si       1.86065614       3.27545341       3.16721871      -0.09004256       0.32486579      -0.55004028
Si       6.01246177       3.27545341       1.19929151       0.55004028       0.32486579       0.09004256
Si       0.10838637       3.27545341       4.91948848      -0.55004028       0.32486579      -0.09004256
Si       4.92052256       1.43435765       6.01142770      -0.09004256      -0.32486579       0.55004028
Si       1.20032559       1.43435765       0.10735229       0.09004256      -0.32486579      -0.55004028
8
Lattice="5.897964101496639 -1.8205421314927515e-51 3.235558575803637e-35 1.0834912327856919e-51 4.719174069406648 -2.737853330710781e-16 -1.5884640036973976e-35 3.715907969447437e-16 5.897964101496639" Properties=species:S:1:pos:R:3:forces:R:3 unique_starting_index=2 config_type=initial n_minim_iter=3 energy=-1299.9240968690328 stress="-0.004457532337244582 8.212828773669084e-17 3.783520345126583e-16 8.212828773669084e-17 -0.007872441067814696 7.84720361210327e-17 3.783520345126583e-16 7.84720361210327e-17 -0.00445753233724579" free_energy=-1299.9240968690328 pbc="T T T"
Si       3.00861312       1.37723939       4.13290673      -0.53311703      -0.05979626       0.11148986
Si       2.89042587       1.37723939       1.76413905       0.53311703      -0.05979626      -0.11148986
Si       4.13390333       3.34195796       2.88942927       0.11148986       0.05979626       0.53311703
Si       1.76513566       3.34195796       3.00761651      -0.11148986       0.05979626      -0.53311703
Si       5.83940792       3.34195796       1.18392468       0.53311703       0.05979626       0.11148986
Si       0.05963107       3.34195796       4.71312110      -0.53311703       0.05979626      -0.11148986
Si       4.71411771       1.37723939       5.83841132      -0.11148986      -0.05979626       0.53311703
Si       1.18492128       1.37723939       0.05863446       0.11148986      -0.05979626      -0.53311703
8
Lattice="5.776603159657425 -2.049521219190457e-51 2.5501740650788574e-35 1.2088312817732023e-51 4.899252522983947 -2.592648569736311e-16 -1.348497186573765e-35 3.9664022952338477e-16 5.776603159657425" Properties=species:S:1:pos:R:3:forces:R:3 unique_starting_index=2 config_type=initial n_minim_iter=4 energy=-1300.088051977476 stress="-0.007939002274051312 1.342106084670761e-16 3.3175349022612794e-16 1.342106084670761e-16 -0.013304055418475933 -9.92232363409557e-17 3.3175349022612794e-16 -9.92232363409557e-17 -0.007939002274049837" free_energy=-1300.088051977476 pbc="T T T"
Si       2.87412229       1.42719723       4.05589688       0.16646902      -0.09139663       0.28975369
Si       2.90353364       1.42719723       1.71980686      -0.16646902      -0.09139663      -0.28975369
Si       4.05687297       3.47207946       2.90255755       0.28975369       0.09139663      -0.16646902
Si       1.72078296       3.47207946       2.87314619      -0.28975369       0.09139663       0.16646902
Si       5.79183522       3.47207946       1.16759530      -0.16646902       0.09139663       0.28975369
Si      -0.01417929       3.47207946       4.60810844       0.16646902       0.09139663      -0.28975369
Si       4.60908454       1.42719723       5.79085913      -0.28975369      -0.09139663      -0.16646902
Si       1.16857139       1.42719723      -0.01515539       0.28975369      -0.09139663       0.16646902
8
Lattice="5.6341207903211785 -2.0460807492160303e-51 2.48727293911094e-35 1.2443171231202016e-51 5.099194811410936 -2.509321928339765e-16 -1.315235930974949e-35 4.15112226555344e-16 5.634120790321179" Properties=species:S:1:pos:R:3:forces:R:3 unique_starting_index=2 config_type=initial n_minim_iter=5 energy=-1300.128338757201 stress="-0.017468083949637028 -1.0066275305889958e-16 -1.4570919821118582e-16 -1.0066275305889958e-16 -0.02430547419015885 6.430245616306211e-17 -1.4570919821118582e-16 6.430245616306211e-17 -0.01746808394963802" free_energy=-1300.128338757201 pbc="T T T"
Si       2.79955439       1.49077747       3.97025725       0.27736303      -0.19995367       0.17334938
Si       2.83559320       1.49077747       1.66298630      -0.27736303      -0.19995367      -0.17334938
Si       3.97120928       3.60844250       2.83464118       0.17334938       0.19995367      -0.27736303
Si       1.66393832       3.60844250       2.79860237      -0.17334938       0.19995367       0.27736303
Si       5.65265360       3.60844250       1.15319686      -0.27736303       0.19995367       0.17334938
Si      -0.01750600       3.60844250       4.48004669       0.27736303       0.19995367      -0.17334938
Si       4.48099872       1.49077747       5.65170158      -0.17334938      -0.19995367      -0.27736303
Si       1.15414888       1.49077747      -0.01845802       0.17334938      -0.19995367       0.27736303
8
Lattice="5.578316455967172 -2.4265611038990677e-51 2.469380441895433e-35 1.2699220044810938e-51 5.18999711212247 -3.265301953075569e-16 -1.3089521208130904e-35 3.3920422078556475e-16 5.578316455967171" Properties=species:S:1:pos:R:3:forces:R:3 unique_starting_index=2 config_type=initial n_minim_iter=6 energy=-1300.1375346703105 stress="-0.023675983384228126 -8.001579730694687e-17 8.620110727267426e-17 -8.001579730694687e-17 -0.02690261701119344 -1.3664006611866156e-16 8.620110727267426e-17 -1.3664006611866156e-16 -0.023675983384226544" free_energy=-1300.1375346703105 pbc="T T T"
Si       2.77158385       1.51705169       3.93191923       0.30574347      -0.22404045       0.19348066
Si       2.80774925       1.51705169       1.64552868      -0.30574347      -0.22404045      -0.19348066
Si       3.93286182       3.67297103       2.80680665       0.19348066       0.22404045      -0.30574347
Si       1.64647127       3.67297103       2.77064125      -0.19348066       0.22404045       0.30574347
Si       5.59690747       3.67297103       1.14276100      -0.30574347       0.22404045       0.19348066
Si      -0.01757438       3.67297103       4.43468691       0.30574347       0.22404045      -0.19348066
Si       4.43562950       1.51705169       5.59596488      -0.19348066      -0.22404045      -0.30574347
Si       1.14370359       1.51705169      -0.01851697       0.19348066      -0.22404045       0.30574347
8
Lattice="5.544340049985058 -2.1881072992534003e-51 2.4544289110600424e-35 7.884288461885205e-52 5.291407446787531 -2.714931054054421e-16 -9.718512149428795e-36 4.014348746756214e-16 5.544340049985057" Properties=species:S:1:pos:R:3:forces:R:3 unique_starting_index=2 config_type=initial n_minim_iter=7 energy=-1300.179236087219 stress="-0.026249814773606897 -1.5967364058180097e-16 3.2642898238705316e-16 -1.5967364058180097e-16 -0.024490953032895623 -2.8087243191123714e-16 3.2642898238705316e-16 -2.8087243191123714e-16 -0.026249814773610543" free_energy=-1300.179236087219 pbc="T T T"
Si       2.75919732       1.54534564       3.92383584       0.26994385      -0.27370711      -0.27281872
Si       2.78615317       1.54534564       1.61964095      -0.26994385      -0.27370711       0.27281872
Si       3.92477269       3.74608791       2.78521632      -0.27281872       0.27370711      -0.26994385
Si       1.62057780       3.74608791       2.75826047       0.27281872       0.27370711       0.26994385
Si       5.55832320       3.74608791       1.15166581      -0.26994385       0.27370711      -0.27281872
Si      -0.01297270       3.74608791       4.39181098       0.26994385       0.27370711       0.27281872
Si       4.39274783       1.54534564       5.55738635       0.27281872      -0.27370711      -0.26994385
Si       1.15260266       1.54534564      -0.01390955      -0.27281872      -0.27370711       0.26994385
8
Lattice="5.53995458093093 -2.2166842880526427e-51 2.398168185938416e-35 8.632702455048898e-52 5.418840396934151 -2.6954504453414314e-16 -9.710395332863988e-36 4.129187980512313e-16 5.539954580930929" Properties=species:S:1:pos:R:3:forces:R:3 unique_starting_index=2 config_type=initial n_minim_iter=8 energy=-1300.301072292915 stress="-0.018506041548720886 3.850136178312879e-16 4.6254356909124574e-17 3.850136178312879e-16 -0.01311352541641321 -4.5097636822525474e-17 4.6254356909124574e-17 -4.5097636822525474e-17 -0.018506041548722266" free_energy=-1300.301072292915 pbc="T T T"
Si       2.77399928       1.56177955       3.92000707      -0.06958274      -0.19609805      -0.18417412
Si       2.76696495       1.56177955       1.61908494       0.06958274      -0.19609805       0.18417412
Si       3.92094318       3.85708759       2.76602884      -0.18417412       0.19609805       0.06958274
Si       1.62002105       3.85708759       2.77306317       0.18417412       0.19609805      -0.06958274
Si       5.53694224       3.85708759       1.15002978       0.06958274       0.19609805      -0.18417412
Si       0.00402199       3.85708759       4.38906223      -0.06958274       0.19609805       0.18417412
Si       4.38999834       1.56177955       5.53600613       0.18417412      -0.19609805       0.06958274
Si       1.15096589       1.56177955       0.00308588      -0.18417412      -0.19609805      -0.06958274
8
Lattice="5.61627057493886 -2.247130540581894e-51 2.322565667434998e-35 8.252460945735176e-52 5.481562128455576 -2.7258324472268664e-16 -8.75777513948944e-36 4.18388250327316e-16 5.616270574938859" Properties=species:S:1:pos:R:3:forces:R:3 unique_starting_index=2 config_type=initial n_minim_iter=9 energy=-1300.385822010453 stress="0.005860669869486662 -1.6829810220333403e-17 5.016371161505948e-17 -1.6829810220333403e-17 0.0017561907659173616 -4.701453242873754e-17 5.016371161505948e-17 -4.701453242873754e-17 0.005860669869483779" free_energy=-1300.385822010453 pbc="T T T"
Si       2.80608135       1.53278237       3.97481894       0.04409909      -0.06765123      -0.09655367
Si       2.81121278       1.53278237       1.64057718      -0.04409909      -0.06765123       0.09655367
Si       3.97576794       3.94880681       2.81026378      -0.09655367       0.06765123      -0.04409909
Si       1.64152619       3.94880681       2.80513234       0.09655367       0.06765123       0.04409909
Si       5.61934807       3.94880681       1.16668365      -0.04409909       0.06765123      -0.09655367
Si      -0.00205394       3.94880681       4.44871247       0.04409909       0.06765123       0.09655367
Si       4.44966147       1.53278237       5.61839906       0.09655367      -0.06765123      -0.04409909
Si       1.16763265       1.53278237      -0.00300295      -0.09655367      -0.06765123       0.04409909
8
Lattice="5.583694168737099 -2.2700889877090727e-51 2.3358840390739698e-35 8.58843192715525e-52 5.535241633291592 -2.6747236195238844e-16 -8.975316100966147e-36 4.260180960033812e-16 5.583694168737098" Properties=species:S:1:pos:R:3:forces:R:3 unique_starting_index=2 config_type=initial n_minim_iter=10 energy=-1300.39608175907 stress="0.0008334657692945414 2.6917202634290984e-17 -3.512307020896942e-17 2.6917202634290984e-17 0.0031633006285497777 -1.0259021900473494e-16 -3.512307020896942e-17 -1.0259021900473494e-16 0.0008334657692932662" free_energy=-1300.39608175907 pbc="T T T"
Si       2.78977975       1.53150090       3.94943302       0.04529953      -0.03286909      -0.00963083
Si       2.79493204       1.53150090       1.63339176      -0.04529953      -0.03286909       0.00963083
Si       3.95037652       4.00376804       2.79398854      -0.00963083       0.03286909      -0.04529953
Si       1.63433526       4.00376804       2.78883625       0.00963083       0.03286909       0.04529953
Si       5.58677912       4.00376804       1.15758594      -0.04529953       0.03286909      -0.00963083
Si      -0.00206734       4.00376804       4.42523884       0.04529953       0.03286909       0.00963083
Si       4.42618234       1.53150090       5.58583562       0.00963083      -0.03286909      -0.04529953
Si       1.15852944       1.53150090      -0.00301084      -0.00963083      -0.03286909       0.04529953
8
Lattice="5.587265750814197 -2.178672444005096e-51 2.2835655627149398e-35 7.283136367913345e-52 5.501386387295013 -2.6175225470828447e-16 -8.173462062376872e-36 4.2938507590042064e-16 5.587265750814195" Properties=species:S:1:pos:R:3:forces:R:3 unique_starting_index=2 config_type=initial n_minim_iter=11 energy=-1300.3995462087576 stress="-0.0005511498528120212 3.093102410067421e-16 -1.7560928795864056e-16 3.093102410067421e-16 -0.0006143382159621847 1.1389220332528871e-16 -1.7560928795864056e-16 1.1389220332528871e-16 -0.000551149852814944" free_energy=-1300.3995462087576 pbc="T T T"
Si       2.79457822       1.51155638       3.95167812      -0.00760875      -0.00881847       0.01606692
Si       2.79370580       1.51155638       1.63471769       0.00760875      -0.00881847      -0.01606692
Si       3.95262222       3.98985715       2.79276169       0.01606692       0.00881847       0.00760875
Si       1.63566179       3.98985715       2.79363412      -0.01606692       0.00881847      -0.00760875
Si       5.58733867       3.98985715       1.15804524       0.00760875       0.00881847       0.01606692
Si       0.00094535       3.98985715       4.42835057      -0.00760875       0.00881847      -0.01606692
Si       4.42929467       1.51155638       5.58639457      -0.01606692      -0.00881847       0.00760875
Si       1.15898935       1.51155638       0.00000124       0.01606692      -0.00881847      -0.00760875
8
Lattice="5.587784348421435 -2.1824479006959957e-51 2.2837775182025816e-35 7.287075073315068e-52 5.506600362654359 -2.6233585254567623e-16 -8.167909451832307e-36 4.292239948840503e-16 5.587784348421434" Properties=species:S:1:pos:R:3:forces:R:3 unique_starting_index=2 config_type=initial n_minim_iter=12 energy=-1300.3998784593134 stress="-0.0001617852166768673 7.224044501041119e-17 5.549196194933819e-17 7.224044501041119e-17 -7.406267243056079e-05 3.667110634564811e-16 5.549196194933819e-17 3.667110634564811e-16 -0.00016178521667820864" free_energy=-1300.3998784593134 pbc="T T T"
Si       2.79460081       1.50818032       3.95287310      -0.00348719      -0.00239050      -0.00405663
Si       2.79420190       1.50818032       1.63404123       0.00348719      -0.00239050       0.00405663
Si       3.95381729       3.99844721       2.79325771      -0.00405663       0.00239050       0.00348719
Si       1.63498542       3.99844721       2.79365662       0.00405663       0.00239050      -0.00348719
Si       5.58809408       3.99844721       1.15898093       0.00348719       0.00239050      -0.00405663
Si       0.00070863       3.99844721       4.42793340      -0.00348719       0.00239050       0.00405663
Si       4.42887759       1.50818032       5.58714988       0.00405663      -0.00239050       0.00348719
Si       1.15992512       1.50818032      -0.00023556      -0.00405663      -0.00239050      -0.00348719
