14
Lattice="5.704652877792206 0.6675272421062908 -3.889580979282384e-15 0.3330880298843788 2.5866199689940417 -4.339140817920769e-15 7.161319236649527e-15 2.4223962045851215e-14 15.005670709812692" Properties=species:S:1:pos:R:3:forces:R:3 unique_starting_index=0 config_type=initial n_minim_iter=1 energy=-2278.914662849268 stress="-0.002308203131219103 -0.00044349174919274263 -3.4984598127665614e-16 -0.00044349174919274263 -0.0033657653915894867 4.904787680520662e-16 -3.4984598127665614e-16 4.904787680520662e-16 -0.0019626528098013207" free_energy=-2278.914662849268 pbc="T T T"
Si       1.86755618       1.81332648      11.95083047       0.00124926       0.03700730      -0.05164985
Si       1.15131427      -0.18625288       4.44799512      -0.00124926      -0.03700730      -0.05164985
Si       4.17018473       1.44082073       3.05484024      -0.00124926      -0.03700730       0.05164985
Si       4.88642663       3.44040009      10.55767559       0.00124926       0.03700730       0.05164985
Si       4.67505465       0.91679232       5.41469372      -0.03320644       0.02931150      -0.01050253
Si       4.04846868       1.37780852      12.91752907       0.03320644      -0.02931150      -0.01050253
Si       1.36268626       2.33735489       9.59097699       0.03320644      -0.02931150       0.01050253
Si       1.98927223       1.87633869       2.08814164      -0.03320644       0.02931150       0.01050253
Si       2.42953249       1.21367050       6.42548128      -0.00368080      -0.01094026       0.00814248
Si       0.58933796       0.41340311      13.92831664       0.00368080       0.01094026       0.00814248
Si       3.60820842       2.04047671       8.58018943       0.00368080       0.01094026      -0.00814248
Si       5.44840294       2.84074410       1.07735407      -0.00368080      -0.01094026      -0.00814248
Si       2.85232644       0.33376362       0.00000000      -0.00000000      -0.00000000      -0.00000000
Si       0.16654401       1.29330998       7.50283535      -0.00000000       0.00000000       0.00000000
14
Lattice="5.7127871596286495 0.6704150640265365 -3.928594963736414e-15 0.33424627065037765 2.5919707142715382 -4.35456093675907e-15 7.093690997418545e-15 2.4227674653568853e-14 15.023461403274899" Properties=species:S:1:pos:R:3:forces:R:3 unique_starting_index=0 config_type=initial n_minim_iter=2 energy=-2278.9160833390165 stress="0.0004923206092163725 -0.00035057842915502645 -4.1086920803869936e-16 -0.00035057842915502645 -0.0004550804710094239 4.020730362372529e-16 -4.1086920803869936e-16 4.020730362372529e-16 0.0005198981066483358" free_energy=-2278.9160833390165 pbc="T T T"
Si       1.87065036       1.81761849      11.96485620       0.00445975       0.04156829      -0.04303592
Si       1.15286636      -0.18642560       4.45312550      -0.00445975      -0.04156829      -0.04303592
Si       4.17638308       1.44476729       3.05860520      -0.00445975      -0.04156829       0.04303592
Si       4.89416707       3.44881138      10.57033591       0.00445975       0.04156829       0.04303592
Si       4.68172796       0.91999231       5.42108426      -0.02967064       0.03115135      -0.01053680
Si       4.05457591       1.38161564      12.93281496       0.02967064      -0.03115135      -0.01053680
Si       1.36530547       2.34239346       9.60237714       0.02967064      -0.03115135       0.01053680
Si       1.99245752       1.88077014       2.09064644      -0.02967064       0.03115135       0.01053680
Si       2.43323582       1.21676047       6.43312189      -0.00151359      -0.00594066       0.00250014
Si       0.59028090       0.41443242      13.94485259       0.00151359       0.00594066       0.00250014
Si       3.61379761       2.04562531       8.59033952       0.00151359       0.00594066      -0.00250014
Si       5.45675253       2.84795336       1.07860881      -0.00151359      -0.00594066      -0.00250014
Si       2.85639358       0.33520753       0.00000000       0.00000000       0.00000000      -0.00000000
Si       0.16712314       1.29598536       7.51173070      -0.00000000       0.00000000       0.00000000
14
Lattice="5.70955081179148 0.6751452694807064 -3.621304269327696e-15 0.3358124768127793 2.595300305227823 -4.307881731808564e-15 7.882741422614713e-15 2.438607427293128e-14 15.012416820031111" Properties=species:S:1:pos:R:3:forces:R:3 unique_starting_index=0 config_type=initial n_minim_iter=3 energy=-2278.9163729911797 stress="-0.0004732112113277369 0.00016149906589153738 1.0717917505505256e-15 0.00016149906589153738 0.0002933584404857408 1.6215340448575376e-16 1.0717917505505256e-15 1.6215340448575376e-16 9.45759013371896e-05" free_energy=-2278.9163729911797 pbc="T T T"
Si       1.87072791       1.82144493      11.95567563       0.00095043       0.04114288      -0.03586430
Si       1.15195373      -0.18622214       4.44946722      -0.00095043      -0.04114288      -0.03586430
Si       4.17463537       1.44900065       3.05674119      -0.00095043      -0.04114288       0.03586430
Si       4.89340956       3.45666772      10.56294960       0.00095043       0.04114288       0.03586430
Si       4.67906685       0.92458697       5.41700583      -0.02672398       0.02904729      -0.00398219
Si       4.05316561       1.38578109      12.92321424       0.02672398      -0.02904729      -0.00398219
Si       1.36629644       2.34585861       9.59541099       0.02672398      -0.02904729       0.00398219
Si       1.99219768       1.88466448       2.08920258      -0.02672398       0.02904729       0.00398219
Si       2.43248325       1.21983365       6.42841744      -0.00138510      -0.00697026       0.00523875
Si       0.59019839       0.41538914      13.93462585       0.00138510       0.00697026       0.00523875
Si       3.61288004       2.05061193       8.58399938       0.00138510       0.00697026      -0.00523875
Si       5.45516490       2.85505643       1.07779097      -0.00138510      -0.00697026      -0.00523875
Si       2.85477541       0.33757263       0.00000000       0.00000000      -0.00000000       0.00000000
Si       0.16790624       1.29765015       7.50620841       0.00000000      -0.00000000       0.00000000
14
Lattice="5.715501822735267 0.6759749976272417 -3.840144732719357e-15 0.33650755317985287 2.5955448383279087 -4.3382325369953635e-15 7.350595530834074e-15 2.4259644292696114e-14 14.992863712776984" Properties=species:S:1:pos:R:3:forces:R:3 unique_starting_index=0 config_type=initial n_minim_iter=4 energy=-2278.9167125515723 stress="0.0005175920123810749 0.00015920987832624913 -4.3079635873044905e-16 0.00015920987832624913 8.522908929618829e-05 -7.842769890656635e-17 -4.3079635873044905e-16 -7.842769890656635e-17 -0.000799847980920439" free_energy=-2278.9167125515723 pbc="T T T"
Si       1.87295647       1.82300105      11.93902492       0.01391456       0.03411336      -0.02019428
Si       1.15304822      -0.18724113       4.44259307      -0.01391456      -0.03411336      -0.02019428
Si       4.17905290       1.44851879       3.05383879      -0.01391456      -0.03411336       0.02019428
Si       4.89896116       3.45876097      10.55027065       0.01391456       0.03411336       0.02019428
Si       4.68321426       0.92613270       5.40977354      -0.01520414       0.02194636       0.00344100
Si       4.05829225       1.38560222      12.90620539       0.01520414      -0.02194636       0.00344100
Si       1.36879512       2.34538714       9.58309017       0.01520414      -0.02194636      -0.00344100
Si       1.99371712       1.88591762       2.08665832      -0.01520414       0.02194636      -0.00344100
Si       2.43510313       1.22007051       6.42016616      -0.00176379      -0.00836491       0.00580473
Si       0.59090156       0.41568941      13.91659802       0.00176379       0.00836491       0.00580473
Si       3.61690624       2.05144932       8.57269755       0.00176379       0.00836491      -0.00580473
Si       5.46110782       2.85583043       1.07626569      -0.00176379      -0.00836491      -0.00580473
Si       2.85775091       0.33798750       0.00000000       0.00000000       0.00000000      -0.00000000
Si       0.16825378       1.29777242       7.49643186       0.00000000       0.00000000       0.00000000
14
Lattice="5.707109776420774 0.6703534779245998 -3.9905503948240604e-15 0.33371392320211957 2.593448540360111 -4.355237937965589e-15 6.937397684036711e-15 2.423905384423966e-14 15.026285901224421" Properties=species:S:1:pos:R:3:forces:R:3 unique_starting_index=0 config_type=initial n_minim_iter=5 energy=-2278.9179316068785 stress="-0.00025947229845759616 -0.0005150463582327512 -2.1253822415584818e-16 -0.0005150463582327512 0.0003409959258664809 -1.726595494037489e-16 -2.1253822415584818e-16 -1.726595494037489e-16 -0.00020459251527893922" free_energy=-2278.9179316068785 pbc="T T T"
Si       1.86957761       1.82574152      11.96083336       0.02859206       0.02598332       0.02095145
Si       1.15083424      -0.19384051       4.44769041      -0.02859206      -0.02598332       0.02095145
Si       4.17124609       1.43806049       3.06545254      -0.02859206      -0.02598332      -0.02095145
Si       4.88998946       3.45764253      10.57859549       0.02859206       0.02598332      -0.02095145
Si       4.67251198       0.92526068       5.42132310       0.01867170       0.00874349       0.01455901
Si       4.05500965       1.37699380      12.93446605      -0.01867170      -0.00874349       0.01455901
Si       1.36831172       2.33854134       9.60496281      -0.01867170      -0.00874349      -0.01455901
Si       1.98581405       1.88680821       2.09181986       0.01867170       0.00874349      -0.01455901
Si       2.43046511       1.21599500       6.43516239      -0.01492880       0.00215102      -0.00068390
Si       0.58994674       0.41590600      13.94830534       0.01492880      -0.00215102      -0.00068390
Si       3.61035859       2.04780701       8.59112351       0.01492880      -0.00215102       0.00068390
Si       5.45087696       2.84789601       1.07798056      -0.01492880       0.00215102       0.00068390
Si       2.85355489       0.33517674       0.00000000       0.00000000      -0.00000000      -0.00000000
Si       0.16685696       1.29672427       7.51314295       0.00000000      -0.00000000       0.00000000
14
Lattice="5.708789427803462 0.6765621365424292 -4.001305432009541e-15 0.33692964469397624 2.5908633833469756 -4.352491163882e-15 6.945810035662037e-15 2.4265909533843674e-14 15.042702680168718" Properties=species:S:1:pos:R:3:forces:R:3 unique_starting_index=0 config_type=initial n_minim_iter=6 energy=-2278.918234659738 stress="-7.492880854690574e-05 0.00015861237745514603 -1.5884195870262104e-16 0.00015861237745514603 -0.00016347913443414896 -3.2884083210973624e-16 -1.5884195870262104e-16 -3.2884083210973624e-16 0.00013696388289805838" free_energy=-2278.918234659738 pbc="T T T"
Si       1.87265648       1.82763586      11.97299881       0.03174122       0.02772511       0.02243161
Si       1.15020305      -0.19392310       4.45164747      -0.03174122      -0.02772511       0.02243161
Si       4.17306259       1.43978966       3.06970387      -0.03174122      -0.02772511      -0.02243161
Si       4.89551602       3.46134862      10.59105521       0.03174122       0.02772511      -0.02243161
Si       4.67373652       0.93098995       5.42730774       0.02185237       0.00585729       0.01613889
Si       4.05791245       1.37928495      12.94865908      -0.02185237      -0.00585729       0.01613889
Si       1.37198256       2.33643557       9.61539494      -0.02185237      -0.00585729      -0.01613889
Si       1.98780662       1.88814057       2.09404360       0.02185237       0.00585729      -0.01613889
Si       2.43207289       1.21733956       6.44235040      -0.01475905       0.00488638       0.00068339
Si       0.59078665       0.41637320      13.96370174       0.01475905      -0.00488638       0.00068339
Si       3.61364618       2.05008596       8.60035228       0.01475905      -0.00488638      -0.00068339
Si       5.45493243       2.85105232       1.07900094      -0.01475905       0.00488638      -0.00068339
Si       2.85439471       0.33828107       0.00000000      -0.00000000       0.00000000       0.00000000
Si       0.16846482       1.29543169       7.52135134       0.00000000       0.00000000      -0.00000000
14
Lattice="5.7117745896950085 0.6782079182022839 -3.990253696493597e-15 0.33797443861222654 2.5898014742741875 -4.349186945474795e-15 6.9923954154903116e-15 2.42971512488365e-14 15.057739103163545" Properties=species:S:1:pos:R:3:forces:R:3 unique_starting_index=0 config_type=initial n_minim_iter=7 energy=-2278.920796459281 stress="2.822691105282078e-05 -1.3707040281959763e-07 -4.577388418589679e-16 -1.3707040281959763e-07 2.9494920562738904e-05 -4.12437522668106e-16 -4.577388418589679e-16 -4.12437522668106e-16 0.00013075300347848733" free_energy=-2278.920796459281 pbc="T T T"
Si       1.88795629       1.84959179      11.98369911       0.00394969       0.01266386       0.01849959
Si       1.13691823      -0.21558709       4.45482956      -0.00394969      -0.01266386       0.01849959
Si       4.16179274       1.41841761       3.07403999      -0.00394969      -0.01266386      -0.01849959
Si       4.91283080       3.48359648      10.60290954       0.00394969       0.01266386      -0.01849959
Si       4.67730154       0.94287617       5.43779237      -0.02461823      -0.01048884       0.00218658
Si       4.05934756       1.36933644      12.96666192       0.02461823       0.01048884       0.00218658
Si       1.37244748       2.32513322       9.61994674       0.02461823       0.01048884      -0.00218658
Si       1.99040147       1.89867295       2.09107718      -0.02461823      -0.01048884      -0.00218658
Si       2.42754338       1.21705282       6.45030383       0.02407582       0.00858510      -0.00975514
Si       0.59733114       0.41695187      13.97917338      -0.02407582      -0.00858510      -0.00975514
Si       3.62220565       2.05095657       8.60743528      -0.02407582      -0.00858510       0.00975514
Si       5.45241789       2.85105752       1.07856572       0.02407582       0.00858510       0.00975514
Si       2.85588729       0.33910396       0.00000000       0.00000000       0.00000000      -0.00000000
Si       0.16898722       1.29490074       7.52886955      -0.00000000      -0.00000000       0.00000000
14
Lattice="5.713766653647359 0.6797360688861662 -3.990466964856359e-15 0.33875026408928927 2.5900867999943493 -4.349574149127009e-15 7.00219892681261e-15 2.430368654714935e-14 15.060891698090833" Properties=species:S:1:pos:R:3:forces:R:3 unique_starting_index=0 config_type=initial n_minim_iter=8 energy=-2278.921573523239 stress="4.69457534846701e-05 5.180875151569139e-06 -2.8298710631229074e-16 5.180875151569139e-06 5.347840743052913e-05 -4.947733395638994e-16 -2.8298710631229074e-16 -4.947733395638994e-16 0.00016806525702795554" free_energy=-2278.921573523239 pbc="T T T"
Si       1.89401349       1.85926705      11.98942948       0.00949745       0.00615923      -0.00544373
Si       1.13224497      -0.22435562       4.45898363      -0.00949745      -0.00615923      -0.00544373
Si       4.15850343       1.41055582       3.07146222      -0.00949745      -0.00615923       0.00544373
Si       4.92027195       3.49417848      10.60190807       0.00949745       0.00615923       0.00544373
Si       4.67464605       0.94534295       5.44095626       0.00093361      -0.01760087      -0.02193479
Si       4.06537907       1.36930455      12.97140211      -0.00093361       0.01760087      -0.02193479
Si       1.37787087       2.32447992       9.61993543      -0.00093361       0.01760087       0.02193479
Si       1.98713785       1.90051832       2.08948958       0.00093361      -0.01760087       0.02193479
Si       2.43139377       1.21917594       6.45029002      -0.00255239       0.01035335       0.01241838
Si       0.59486469       0.41573550      13.98073587       0.00255239      -0.01035335       0.01241838
Si       3.62112315       2.05064693       8.61060168       0.00255239      -0.01035335      -0.01241838
Si       5.45765222       2.85408737       1.08015583      -0.00255239       0.01035335      -0.01241838
Si       2.85688333       0.33986803       0.00000000      -0.00000000       0.00000000       0.00000000
Si       0.16937513       1.29504340       7.53044585       0.00000000      -0.00000000       0.00000000
14
Lattice="5.718408644348596 0.6815316695648438 -3.968562415351191e-15 0.34007499906352723 2.5880398047734126 -4.343166707366837e-15 7.0784634641364005e-15 2.4337512591969005e-14 15.074096692921799" Properties=species:S:1:pos:R:3:forces:R:3 unique_starting_index=0 config_type=initial n_minim_iter=9 energy=-2278.9227029676986 stress="3.048557838635772e-05 -1.3824711430879326e-05 -3.50112803463817e-16 -1.3824711430879326e-05 -1.4356638380909312e-05 2.5978120434529215e-17 -3.50112803463817e-16 2.5978120434529215e-17 0.00010638238788566398" free_energy=-2278.9227029676986 pbc="T T T"
Si       1.90820038       1.87441265      12.00231006      -0.02139314       0.01107776       0.00087573
Si       1.12104144      -0.23962691       4.46526172       0.02139314      -0.01107776       0.00087573
Si       4.15028326       1.39515882       3.07178663       0.02139314      -0.01107776      -0.00087573
Si       4.93744220       3.50919839      10.60883498      -0.02139314       0.01107776      -0.00087573
Si       4.67275888       0.93992006       5.43866198      -0.01142190      -0.01355640       0.01460504
Si       4.07489159       1.37639734      12.97571033       0.01142190       0.01355640       0.01460504
Si       1.38572477       2.32965141       9.63543471       0.01142190       0.01355640      -0.01460504
Si       1.98359205       1.89317413       2.09838636      -0.01142190      -0.01355640      -0.01460504
Si       2.43657062       1.22576366       6.45997480      -0.02299893       0.01254206       0.00334176
Si       0.59267120       0.40902207      13.99702315       0.02299893      -0.01254206       0.00334176
Si       3.62191302       2.04380781       8.61412189       0.02299893      -0.01254206      -0.00334176
Si       5.46581244       2.86054940       1.07707355      -0.02299893       0.01254206      -0.00334176
Si       2.85920432       0.34076583       0.00000000      -0.00000000       0.00000000      -0.00000000
Si       0.17003750       1.29401990       7.53704835      -0.00000000       0.00000000      -0.00000000
14
Lattice="5.718499391451765 0.6849467194999229 -3.935041980199658e-15 0.34178757102709334 2.5866826085530517 -4.33637735117037e-15 7.189797857016074e-15 2.4389070866458856e-14 15.094793975531813" Properties=species:S:1:pos:R:3:forces:R:3 unique_starting_index=0 config_type=initial n_minim_iter=10 energy=-2278.923951286119 stress="-7.605373430308181e-05 -3.4738636011475214e-05 -1.8773792373566349e-16 -3.4738636011475214e-05 2.0348844100729003e-05 -3.201519184401895e-16 -1.8773792373566349e-16 -3.201519184401895e-16 -2.0539099718773364e-05" free_energy=-2278.923951286119 pbc="T T T"
Si       1.91530180       1.89542377      12.02197988       0.00235104       0.00187460      -0.01603786
Si       1.11484168      -0.25960911       4.47458289      -0.00235104      -0.00187460      -0.01603786
Si       4.14498516       1.37620556       3.07281410      -0.00235104      -0.00187460       0.01603786
Si       4.94544529       3.53123844      10.62021109       0.00235104       0.00187460       0.01603786
Si       4.66325370       0.93046972       5.44363081       0.00548764      -0.01301962       0.01462442
Si       4.08538918       1.39029166      12.99102780      -0.00548764       0.01301962       0.01462442
Si       1.39703326       2.34115960       9.65116317      -0.00548764       0.01301962      -0.01462442
Si       1.97489779       1.88133767       2.10376618       0.00548764      -0.01301962      -0.01462442
Si       2.43220002       1.23800456       6.47460969       0.01345227      -0.00042783       0.00105143
Si       0.59794346       0.39781010      14.02200668      -0.01345227       0.00042783       0.00105143
Si       3.62808695       2.03362477       8.62018428      -0.01345227       0.00042783      -0.00105143
Si       5.46234350       2.87381923       1.07278729       0.01345227      -0.00042783      -0.00105143
Si       2.85924970       0.34247336       0.00000000      -0.00000000      -0.00000000      -0.00000000
Si       0.17089379       1.29334130       7.54739699      -0.00000000       0.00000000      -0.00000000
14
Lattice="5.721411250389624 0.6918431550724229 -3.937641545566352e-15 0.3452778690251387 2.5850308779175886 -4.3340016762843156e-15 7.220137455387714e-15 2.4408892949658432e-14 15.104242452864076" Properties=species:S:1:pos:R:3:forces:R:3 unique_starting_index=0 config_type=initial n_minim_iter=11 energy=-2278.9250509030394 stress="-0.00018985375585128223 -3.712343242662715e-05 5.924342605877037e-16 -3.712343242662715e-05 8.109180462063761e-05 1.9297060733032997e-17 5.924342605877037e-16 1.9297060733032997e-17 -0.00010786512236976704" free_energy=-2278.9250509030394 pbc="T T T"
Si       1.92573490       1.91584464      12.02296364      -0.00408120       0.00742730      -0.00370153
Si       1.10760966      -0.27740762       4.47084242       0.00408120      -0.00742730      -0.00370153
Si       4.14095422       1.36102940       3.08127881       0.00408120      -0.00742730       0.00370153
Si       4.95907946       3.55428165      10.63340004      -0.00408120       0.00742730       0.00370153
Si       4.66208155       0.91743227       5.45446003       0.00623040      -0.00863323      -0.00743332
Si       4.09267426       1.41284791      13.00658126      -0.00623040       0.00863323      -0.00743332
Si       1.40460757       2.35944177       9.64978242      -0.00623040       0.00863323       0.00743332
Si       1.97401486       1.86402613       2.09766119       0.00623040      -0.00863323       0.00743332
Si       2.43743920       1.24998517       6.48452829      -0.00318348      -0.00475249      -0.02822506
Si       0.59590536       0.38845185      14.03664952       0.00318348       0.00475249      -0.02822506
Si       3.62924992       2.02688886       8.61971416       0.00318348       0.00475249       0.02822506
Si       5.47078376       2.88842219       1.06759294      -0.00318348      -0.00475249       0.02822506
Si       2.86070563       0.34592158       0.00000000      -0.00000000       0.00000000      -0.00000000
Si       0.17263893       1.29251544       7.55212123       0.00000000      -0.00000000       0.00000000
14
Lattice="5.723085774552625 0.6947962532844478 -3.943214263059669e-15 0.3469474351584231 2.583041463248906 -4.331584697273508e-15 7.228730270302611e-15 2.4436940506673684e-14 15.121655684809014" Properties=species:S:1:pos:R:3:forces:R:3 unique_starting_index=0 config_type=initial n_minim_iter=12 energy=-2278.9258005473434 stress="-0.00020276608590133534 -4.528429719236854e-05 -4.277461504371052e-16 -4.528429719236854e-05 0.00011185750286617003 4.275541111935831e-17 -4.277461504371052e-16 4.275541111935831e-17 -0.00010507004326742287" free_energy=-2278.9258005473434 pbc="T T T"
Si       1.93148855       1.93179102      12.03061769      -0.00144380       0.00250126       0.00277826
Si       1.10352806      -0.29287216       4.46978985       0.00144380      -0.00250126       0.00277826
Si       4.13854466       1.34604669       3.09103799       0.00144380      -0.00250126      -0.00277826
Si       4.96650515       3.57070988      10.65186583      -0.00144380       0.00250126      -0.00277826
Si       4.66307586       0.90372780       5.46306782      -0.00077788      -0.00201323      -0.00114942
Si       4.09502652       1.42998731      13.02389566       0.00077788       0.00201323      -0.00114942
Si       1.40695735       2.37410992       9.65858787       0.00077788       0.00201323       0.00114942
Si       1.97500669       1.84785041       2.09776002      -0.00077788      -0.00201323       0.00114942
Si       2.43915575       1.25595288       6.48688072       0.00342545      -0.00840743       0.00385179
Si       0.59586085       0.38296598      14.04770856      -0.00342545       0.00840743       0.00385179
Si       3.63087746       2.02188484       8.63477496      -0.00342545       0.00840743      -0.00385179
Si       5.47417236       2.89487174       1.07394712       0.00342545      -0.00840743      -0.00385179
Si       2.86154289       0.34739813       0.00000000      -0.00000000       0.00000000      -0.00000000
Si       0.17347372       1.29152073       7.56082784       0.00000000      -0.00000000       0.00000000
