14
Lattice="5.47009224626628 0.30294650908414456 -1.8532970459862614e-16 0.16050339596256982 2.5317522241083643 -5.812032425494313e-16 5.647378194826787e-16 3.897660463993862e-15 17.14644380875316" Properties=species:S:1:pos:R:3:forces:R:3 unique_starting_index=0 config_type=initial n_minim_iter=1 energy=-2276.6774007984827 stress="-0.0011910595804764444 -8.681787986446985e-05 6.361661811337012e-16 -8.681787986446985e-05 -0.0017092112925977867 2.6476145005023173e-16 6.361661811337012e-16 2.6476145005023173e-16 0.001911464613876831" free_energy=-2276.6774007984827 pbc="T T T"
Si       1.59165470       0.74194604      13.27196475       0.12009655       0.11896037      -0.11387934
Si       1.22364312       0.67540333       4.69874285      -0.12009655      -0.11896037      -0.11387934
Si       4.03894094       2.09275270       3.87447906      -0.12009655      -0.11896037       0.11387934
Si       4.40695252       2.15929540      12.44770096       0.12009655       0.11896037       0.11387934
Si       4.63701340       0.92393905       6.01353303      -0.12319874       0.11572055       0.32273427
Si       3.64837666       0.79635683      14.58675494       0.12319874      -0.11572055       0.32273427
Si       0.99358224       1.91075969      11.13291078       0.12319874      -0.11572055      -0.32273427
Si       1.98221898       2.03834190       2.55968887      -0.12319874       0.11572055      -0.32273427
Si       2.32869969       0.76587528       6.75940329      -0.19250114       0.24863498       0.80814879
Si       0.48659813       0.65147408      15.33262519       0.19250114      -0.24863498       0.80814879
Si       3.30189595       2.06882345      10.38704052       0.19250114      -0.24863498      -0.80814879
Si       5.14399751       2.18322465       1.81381862      -0.19250114       0.24863498      -0.80814879
Si       2.73504612       0.15147325      -0.00000000      -0.00000000      -0.00000000      -0.00000000
Si       0.08025170       1.26587611       8.57322190       0.00000000      -0.00000000      -0.00000000
14
Lattice="5.614785509881505 0.32516452694277226 -2.537232783723417e-16 0.16968416019308208 2.628319268793343 -6.075407279708924e-16 3.6616432018767694e-16 3.721537081311359e-15 16.44569871044983" Properties=species:S:1:pos:R:3:forces:R:3 unique_starting_index=0 config_type=initial n_minim_iter=2 energy=-2276.897415529849 stress="0.019796589161406464 0.0006271498211113779 -5.17990016329199e-16 0.0006271498211113779 0.02533060782455064 -2.7802310682600465e-16 -5.17990016329199e-16 -2.7802310682600465e-16 0.011087935351717723" free_energy=-2276.897415529849 pbc="T T T"
Si       1.64642839       0.78468069      12.71948631       0.33283735       0.03557957       0.10135216
Si       1.24580645       0.69206121       4.49663696      -0.33283735      -0.03557957       0.10135216
Si       4.13804128       2.16880310       3.72621240      -0.33283735      -0.03557957      -0.10135216
Si       4.53866322       2.26142259      11.94906175       0.33283735       0.03557957      -0.10135216
Si       4.74933120       0.97919589       5.79632731      -0.12256923       0.03586869       0.43610732
Si       3.75768915       0.82271053      14.01917667       0.12256923      -0.03586869       0.43610732
Si       1.03513847       1.97428790      10.64937140       0.12256923      -0.03586869      -0.43610732
Si       2.02678052       2.13077326       2.42652204      -0.12256923       0.03586869      -0.43610732
Si       2.37336164       0.82332293       6.55466660       0.01183827       0.18544792       0.79896082
Si       0.51887319       0.65341897      14.77751595      -0.01183827      -0.18544792       0.79896082
Si       3.41110803       2.13016087       9.89103211      -0.01183827      -0.18544792      -0.79896082
Si       5.26559648       2.30006482       1.66818276       0.01183827       0.18544792      -0.79896082
Si       2.80739275       0.16258226      -0.00000000      -0.00000000       0.00000000       0.00000000
Si       0.08484208       1.31415963       8.22284936       0.00000000      -0.00000000       0.00000000
14
Lattice="5.642342927293136 0.3351426740276678 -1.6936461719906498e-16 0.17362854475787984 2.65508672603691 -4.212194770157639e-15 1.8712846921089426e-15 -1.840211354894728e-14 15.623067529256064" Properties=species:S:1:pos:R:3:forces:R:3 unique_starting_index=0 config_type=initial n_minim_iter=3 energy=-2277.1507457001603 stress="0.009994801494668875 -0.0008387985181329049 -3.56016411252597e-16 -0.0008387985181329049 0.01653063826569909 -2.446893796005831e-16 -3.56016411252597e-16 -2.446893796005831e-16 -0.015915148074073328" free_energy=-2277.1507457001603 pbc="T T T"
Si       1.66780937       0.80582101      12.07443028       0.46138678      -0.04927529       0.33655695
Si       1.24017637       0.68929369       4.26289651      -0.46138678       0.04927529       0.33655695
Si       4.14816211       2.18440839       3.54863725      -0.46138678       0.04927529      -0.33655695
Si       4.57579510       2.30093571      11.36017102       0.46138678      -0.04927529      -0.33655695
Si       4.76171714       1.00562168       5.53402538      -0.15968575      -0.10908366       0.62397682
Si       3.78861152       0.82463569      13.34555915       0.15968575       0.10908366       0.62397682
Si       1.05425433       1.98460772      10.08904215       0.15968575       0.10908366      -0.62397682
Si       2.02735995       2.16559371       2.27750838      -0.15968575      -0.10908366      -0.62397682
Si       2.36837609       0.85834765       6.29492201       0.10926760       0.16138037       0.96854759
Si       0.53960965       0.63676705      14.10645578      -0.10926760      -0.16138037       0.96854759
Si       3.44759538       2.13188175       9.32814552      -0.10926760      -0.16138037      -0.96854759
Si       5.27636182       2.35346235       1.51661175       0.10926760       0.16138037      -0.96854759
Si       2.82117146       0.16757134      -0.00000000      -0.00000000      -0.00000000       0.00000000
Si       0.08681427       1.32754336       7.81153376       0.00000000       0.00000000      -0.00000000
14
Lattice="5.663776347300953 0.37202772807686896 -1.8521245682095022e-16 0.19174913676497798 2.6475033558935905 -4.227789626030562e-15 1.7290579410124514e-15 -1.8762773895141383e-14 15.406549565771947" Properties=species:S:1:pos:R:3:forces:R:3 unique_starting_index=0 config_type=initial n_minim_iter=4 energy=-2277.640933403388 stress="0.017616597920720574 -0.0029193419207261505 1.6941694593322808e-16 -0.0029193419207261505 0.017019107758815013 -1.5361293964696101e-16 1.6941694593322808e-16 -1.5361293964696101e-16 -0.00858203402327384" free_energy=-2277.640933403388 pbc="T T T"
Si       1.70847319       0.83457187      11.89480110       0.26657582      -0.12052244       0.80095139
Si       1.21928955       0.67519367       4.19152632      -0.26657582       0.12052244       0.80095139
Si       4.14705229       2.18495921       3.51174846      -0.26657582       0.12052244      -0.80095139
Si       4.63623594       2.34433741      11.21502325       0.26657582      -0.12052244      -0.80095139
Si       4.76043525       1.05229291       5.51480395      -0.27511736      -0.21053640       0.57209022
Si       3.83110384       0.82950036      13.21807873       0.27511736       0.21053640       0.57209022
Si       1.09509023       1.96723817       9.89174562       0.27511736       0.21053640      -0.57209022
Si       2.02442165       2.19003073       2.18847084      -0.27511736      -0.21053640      -0.57209022
Si       2.35131944       0.91774085       6.34306353       0.08484777       0.08412367       0.33812459
Si       0.57644330       0.59202469      14.04633831      -0.08484777      -0.08412367       0.33812459
Si       3.50420605       2.10179023       9.06348604      -0.08484777      -0.08412367      -0.33812459
Si       5.27908218       2.42750639       1.36021125       0.08484777       0.08412367      -0.33812459
Si       2.83188817       0.18601386      -0.00000000       0.00000000       0.00000000      -0.00000000
Si       0.09587457       1.32375168       7.70327478       0.00000000       0.00000000       0.00000000
14
Lattice="5.521494995015274 0.4902425547683192 -4.120205212985924e-17 0.23898509266689655 2.707147463050431 -4.161755138163303e-15 1.690767840777548e-15 -1.887183278502046e-14 15.341261480673884" Properties=species:S:1:pos:R:3:forces:R:3 unique_starting_index=0 config_type=initial n_minim_iter=5 energy=-2277.7097149593255 stress="-0.0035052555510986954 0.0003868990671496142 -2.99709203708073e-18 0.0003868990671496142 0.026301902070529654 -7.5572862457066305e-16 -2.99709203708073e-18 -7.5572862457066305e-16 -0.009932927340330681" free_energy=-2277.7097149593255 pbc="T T T"
Si       1.68476899       0.88970972      11.85264767       0.08259637      -0.09129941       0.61335195
Si       1.19547105       0.70898529       4.18201693      -0.08259637       0.09129941       0.61335195
Si       4.07571110       2.30768029       3.48861381      -0.08259637       0.09129941      -0.61335195
Si       4.56500904       2.48840473      11.15924455       0.08259637      -0.09129941      -0.61335195
Si       4.64317166       1.16867833       5.51103459      -0.34696458      -0.24099492       0.46157341
Si       3.75856338       0.92025924      13.18166533       0.34696458       0.24099492       0.46157341
Si       1.11730843       2.02871169       9.83022689       0.34696458       0.24099492      -0.46157341
Si       2.00191671       2.27713078       2.15959615      -0.34696458      -0.24099492      -0.46157341
Si       2.29695738       0.99653205       6.34863654       0.05873224       0.04171030       0.31448906
Si       0.58328266       0.60216295      14.01926728      -0.05873224      -0.04171030       0.31448906
Si       3.46352270       2.20085796       8.99262494      -0.05873224      -0.04171030      -0.31448906
Si       5.17719743       2.59522706       1.32199420       0.05873224       0.04171030      -0.31448906
Si       2.76074750       0.24512128      -0.00000000      -0.00000000       0.00000000      -0.00000000
Si       0.11949255       1.35357373       7.67063074       0.00000000       0.00000000       0.00000000
14
Lattice="5.6006646975212755 0.6492806675203234 1.0351101789412925e-16 0.31551874578410416 2.696274122019431 -4.188290747654695e-15 1.5980612868021827e-15 -1.916318561559858e-14 15.163836013424156" Properties=species:S:1:pos:R:3:forces:R:3 unique_starting_index=0 config_type=initial n_minim_iter=6 energy=-2277.8110706590614 stress="0.0054669373629945015 0.008880853156671073 -7.446815426943858e-16 0.008880853156671073 0.02166670596024261 2.990923170617032e-16 -7.446815426943858e-16 2.990923170617032e-16 -0.012632303366378354" free_energy=-2277.8110706590614 pbc="T T T"
Si       1.72791722       0.93651495      11.73556118       0.15980273      -0.06824806       0.54581524
Si       1.23017450       0.73626245       4.15364317      -0.15980273       0.06824806       0.54581524
Si       4.18826622       2.40903984       3.42827484      -0.15980273       0.06824806      -0.54581524
Si       4.68600894       2.60929234      11.01019284       0.15980273      -0.06824806      -0.54581524
Si       4.70803024       1.29336245       5.47191585      -0.33281725      -0.30329075       0.33086398
Si       3.85072618       1.02869561      13.05383386       0.33281725       0.30329075       0.33086398
Si       1.20815320       2.05219234       9.69192016       0.33281725       0.30329075      -0.33086398
Si       2.06545727       2.31685917       2.11000215      -0.33281725      -0.30329075      -0.33086398
Si       2.33713345       1.07212862       6.30536724       0.21208750       0.00158587       0.34740952
Si       0.62095827       0.60064878      13.88728525      -0.21208750      -0.00158587       0.34740952
Si       3.57904999       2.27342617       8.85846877      -0.21208750      -0.00158587      -0.34740952
Si       5.29522518       2.74490601       1.27655076       0.21208750       0.00158587      -0.34740952
Si       2.80033235       0.32464033      -0.00000000      -0.00000000       0.00000000       0.00000000
Si       0.15775937       1.34813706       7.58191801       0.00000000       0.00000000       0.00000000
14
Lattice="5.618129555138508 0.5446980745956965 -7.405165835068715e-17 0.26781928278914235 2.6927963443558234 -4.19350399129616e-15 1.525394522323468e-15 -1.9519187782090462e-14 14.950368970729347" Properties=species:S:1:pos:R:3:forces:R:3 unique_starting_index=0 config_type=initial n_minim_iter=7 energy=-2277.979573305057 stress="0.0032010416665977704 3.5956592001476666e-06 -8.320603212869351e-17 3.5956592001476666e-06 0.023448323940333728 -3.213474554107115e-16 -8.320603212869351e-17 -3.213474554107115e-16 -0.01857571202759316" free_energy=-2277.979573305057 pbc="T T T"
Si       1.71079642       0.91122309      11.62012920       0.33703790       0.07914447       0.12905155
Si       1.23217800       0.70752412       4.14494472      -0.33703790      -0.07914447       0.12905155
Si       4.17515242       2.32627133       3.33023977      -0.33703790      -0.07914447      -0.12905155
Si       4.65377084       2.52997030      10.80542426       0.33703790       0.07914447      -0.12905155
Si       4.65339450       1.18939418       5.44197782      -0.28774631      -0.21492781      -0.23707587
Si       3.90770947       0.97405110      12.91716231       0.28774631       0.21492781      -0.23707587
Si       1.23255434       2.04810023       9.50839115       0.28774631       0.21492781       0.23707587
Si       1.97823937       2.26344332       2.03320666      -0.28774631      -0.21492781       0.23707587
Si       2.30257070       1.05789368       6.26926614       0.47101969       0.00333865       0.31575724
Si       0.64040372       0.56085353      13.74445063      -0.47101969      -0.00333865       0.31575724
Si       3.58337814       2.17960074       8.68110283      -0.47101969      -0.00333865      -0.31575724
Si       5.24554512       2.67664089       1.20591834       0.47101969       0.00333865      -0.31575724
Si       2.80906478       0.27234904      -0.00000000      -0.00000000      -0.00000000       0.00000000
Si       0.13390964       1.34639817       7.47518449      -0.00000000      -0.00000000      -0.00000000
14
Lattice="5.605323114240387 0.5548457898936544 -4.828632751437998e-17 0.2735823830717308 2.6667565438867316 -4.226669403302626e-15 1.5465029455332467e-15 -1.9421184770500422e-14 15.009581266703393" Properties=species:S:1:pos:R:3:forces:R:3 unique_starting_index=0 config_type=initial n_minim_iter=8 energy=-2278.149929925749 stress="-0.001392461580585081 0.002195171015200453 7.242416634083349e-16 0.002195171015200453 0.021463182623765502 2.1674568001216346e-16 7.242416634083349e-16 2.1674568001216346e-16 -0.007759079084032306" free_energy=-2278.149929925749 pbc="T T T"
Si       1.70464241       0.94227884      11.69185505       0.38323301       0.05256524       0.23084757
Si       1.23481034       0.66852233       4.18706442      -0.38323301      -0.05256524       0.23084757
Si       4.17426309       2.27932350       3.31772622      -0.38323301      -0.05256524      -0.23084757
Si       4.64409516       2.55308000      10.82251685       0.38323301       0.05256524      -0.23084757
Si       4.56549555       1.16923096       5.44995658       0.23399250      -0.16115660      -0.11562824
Si       3.97928032       0.99641599      12.95474722      -0.23399250       0.16115660      -0.11562824
Si       1.31340995       2.05237137       9.55962468      -0.23399250       0.16115660       0.11562824
Si       1.89962518       2.22518634       2.05483405       0.23399250      -0.16115660       0.11562824
Si       2.30639936       1.08723432       6.33725319       0.19786735      -0.03930378       0.21440984
Si       0.63305339       0.52356685      13.84204382      -0.19786735       0.03930378       0.21440984
Si       3.57250614       2.13436802       8.67232808      -0.19786735       0.03930378      -0.21440984
Si       5.24585210       2.69803548       1.16753745       0.19786735      -0.03930378      -0.21440984
Si       2.80266156       0.27742289      -0.00000000      -0.00000000       0.00000000       0.00000000
Si       0.13679119       1.33337827       7.50479063       0.00000000       0.00000000       0.00000000
14
Lattice="5.720326476041912 0.49939796158536504 -1.4139402919510634e-16 0.2551189385603627 2.5976849842655874 -4.315468309920587e-15 1.528842731326863e-15 -1.950445651062304e-14 14.960631332992321" Properties=species:S:1:pos:R:3:forces:R:3 unique_starting_index=0 config_type=initial n_minim_iter=9 energy=-2278.4618285176693 stress="0.011403470148965388 7.304812127439455e-05 -6.319927063672693e-16 7.304812127439455e-05 0.008040070864960664 -3.9240408044658237e-16 -6.319927063672693e-16 -3.9240408044658237e-16 -0.003187742907103204" free_energy=-2278.4618285176693 pbc="T T T"
Si       1.80694158       0.99294440      11.75724523       0.23327345       0.10031638       0.16059834
Si       1.18078113       0.55559707       4.27692956      -0.23327345      -0.10031638       0.16059834
Si       4.16850384       2.10413854       3.20338610      -0.23327345      -0.10031638      -0.16059834
Si       4.79466429       2.54148588      10.68370177       0.23327345       0.10031638      -0.16059834
Si       4.64438175       1.06339062       5.37836401      -0.01765252      -0.04127298      -0.01703195
Si       4.06366743       0.98454882      12.85867968       0.01765252       0.04127298      -0.01703195
Si       1.33106366       2.03369233       9.58226732       0.01765252       0.04127298       0.01703195
Si       1.91177799       2.11253413       2.10195165      -0.01765252      -0.04127298       0.01703195
Si       2.34582907       1.09169057       6.38339947       0.35390529      -0.07336483      -0.04062105
Si       0.64189364       0.45685090      13.86371514      -0.35390529       0.07336483      -0.04062105
Si       3.62961635       2.00539237       8.57723186      -0.35390529       0.07336483       0.04062105
Si       5.33355178       2.64023204       1.09691620       0.35390529      -0.07336483       0.04062105
Si       2.86016324       0.24969898      -0.00000000      -0.00000000       0.00000000      -0.00000000
Si       0.12755947       1.29884249       7.48031567       0.00000000      -0.00000000      -0.00000000
14
Lattice="5.786194327899715 0.484080627941919 -1.909564108912972e-16 0.25042733929791244 2.589286805752695 -4.3283425321379124e-15 1.4848835291512809e-15 -1.97212195094331e-14 14.835888772244086" Properties=species:S:1:pos:R:3:forces:R:3 unique_starting_index=0 config_type=initial n_minim_iter=10 energy=-2278.531159785575 stress="0.015210714213452728 -0.0012804495501869077 -7.481647789406138e-17 -0.0012804495501869077 0.005503357996552908 3.4499811082880763e-17 -7.481647789406138e-17 3.4499811082880763e-17 -0.0033229402144708225" free_energy=-2278.531159785575 pbc="T T T"
Si       1.86346490       1.04314413      11.69936068       0.08632072       0.10640096       0.12337217
Si       1.15484594       0.49353959       4.28141629      -0.08632072      -0.10640096       0.12337217
Si       4.17315677       2.03022331       3.13652810      -0.08632072      -0.10640096      -0.12337217
Si       4.88177573       2.57982784      10.55447248       0.08632072       0.10640096      -0.12337217
Si       4.69097717       1.04779829       5.33819456      -0.00497087      -0.01262631      -0.09682169
Si       4.11352799       0.97296606      12.75613895       0.00497087       0.01262631      -0.09682169
Si       1.34564450       2.02556914       9.49769421       0.00497087       0.01262631       0.09682169
Si       1.92309367       2.10040138       2.07974982      -0.00497087      -0.01262631       0.09682169
Si       2.42245134       1.08492718       6.34092996       0.01246588      -0.09261479      -0.05413466
Si       0.59585949       0.45175654      13.75887435      -0.01246588       0.09261479      -0.05413466
Si       3.61417032       1.98844025       8.49495881      -0.01246588       0.09261479       0.05413466
Si       5.44076218       2.62161090       1.07701443       0.01246588      -0.09261479       0.05413466
Si       2.89309716       0.24204031      -0.00000000      -0.00000000      -0.00000000      -0.00000000
Si       0.12521367       1.29464340       7.41794439      -0.00000000      -0.00000000      -0.00000000
14
Lattice="5.735720546982724 0.45951665346479664 -1.6633159021140276e-16 0.24000215928391191 2.5455021325467677 -4.3795897397232186e-15 1.5865569115154358e-15 -1.9222283094949973e-14 15.11986785634316" Properties=species:S:1:pos:R:3:forces:R:3 unique_starting_index=0 config_type=initial n_minim_iter=11 energy=-2278.618944237695 stress="0.007314950544141709 -0.004385575472564991 3.1357340135031024e-16 -0.004385575472564991 -0.006924291793845851 -1.815488051669955e-16 3.1357340135031024e-16 -1.815488051669955e-16 0.002896113112758695" free_energy=-2278.618944237695 pbc="T T T"
Si       1.85620621       1.13087387      11.96543089      -0.00692722       0.10582910       0.01656426
Si       1.13165514       0.37163552       4.40549696       0.00692722      -0.10582910       0.01656426
Si       4.11951649       1.87414491       3.15443697       0.00692722      -0.10582910      -0.01656426
Si       4.84406757       2.63338327      10.71437090      -0.00692722       0.10582910      -0.01656426
Si       4.65423549       1.03250549       5.43310400      -0.07696558       0.02724116      -0.06123888
Si       4.06934641       0.92952056      12.99303793       0.07696558      -0.02724116      -0.06123888
Si       1.32148722       1.97251330       9.68676385       0.07696558      -0.02724116       0.06123888
Si       1.90637630       2.07549823       2.12682993      -0.07696558       0.02724116       0.06123888
Si       2.39535890       1.03120915       6.46666333      -0.00694040      -0.05503618      -0.06058791
Si       0.59250246       0.47130025      14.02659726       0.00694040       0.05503618      -0.06058791
Si       3.58036381       1.97380964       8.65320453       0.00694040       0.05503618       0.06058791
Si       5.38322025       2.53371854       1.09327060      -0.00694040      -0.05503618       0.06058791
Si       2.86786027       0.22975833      -0.00000000       0.00000000      -0.00000000      -0.00000000
Si       0.12000108       1.27275107       7.55993393      -0.00000000      -0.00000000      -0.00000000
14
Lattice="5.721616913394507 0.5172281708855376 -1.0873136831781261e-16 0.2657406595904615 2.555588436403407 -4.3711274215466046e-15 1.5512847798544543e-15 -1.9381872643860785e-14 15.03091721846434" Properties=species:S:1:pos:R:3:forces:R:3 unique_starting_index=0 config_type=initial n_minim_iter=12 energy=-2278.6867164323157 stress="-0.0010884263709105746 -0.0011067149054990663 6.467931241835437e-16 -0.0011067149054990663 -0.007160864727586834 -1.528826934834181e-15 6.467931241835437e-16 -1.528826934834181e-15 0.0007346312525453591" free_energy=-2278.6867164323157 pbc="T T T"
Si       1.88829002       1.26244421      11.93626139      -0.14132434       0.11563078      -0.05161555
Si       1.10538877       0.27396409       4.42080278       0.14132434      -0.11563078      -0.05161555
Si       4.09906756       1.81037239       3.09465583       0.14132434      -0.11563078       0.05161555
Si       4.88196880       2.79885252      10.61011444      -0.14132434       0.11563078       0.05161555
Si       4.63251834       1.05818814       5.39279773      -0.10723403       0.02100155       0.01407036
Si       4.08277736       0.99544833      12.90825634       0.10723403      -0.02100155       0.01407036
Si       1.35483923       2.01462847       9.63811949       0.10723403      -0.02100155      -0.01407036
Si       1.90458022       2.07736827       2.12266088      -0.10723403       0.02100155      -0.01407036
Si       2.39332005       0.99983066       6.45648690      -0.03865321      -0.05472154      -0.13340249
Si       0.60035874       0.53657765      13.97194550       0.03865321       0.05472154      -0.13340249
Si       3.59403753       2.07298595       8.57443032       0.03865321       0.05472154       0.13340249
Si       5.38699883       2.53623896       1.05897171      -0.03865321      -0.05472154       0.13340249
Si       2.86080846       0.25861409      -0.00000000      -0.00000000       0.00000000      -0.00000000
Si       0.13287033       1.27779422       7.51545861       0.00000000      -0.00000000      -0.00000000
14
Lattice="5.697561208725991 0.5779920530342837 -2.7903521645150087e-17 0.29242971724362016 2.5687474068346368 -4.3569146874178216e-15 1.551270175534338e-15 -1.9381948948829e-14 15.03087463419682" Properties=species:S:1:pos:R:3:forces:R:3 unique_starting_index=0 config_type=initial n_minim_iter=13 energy=-2278.7700262373637 stress="-0.004107554564553044 0.000172984013846412 -3.0468374265804224e-16 0.000172984013846412 -0.006449291377263004 -8.13359505118534e-16 -3.0468374265804224e-16 -8.13359505118534e-16 0.0011562687027423671" free_energy=-2278.7700262373637 pbc="T T T"
Si       1.90796043       1.48653094      11.96588725      -0.06795500       0.05478034      -0.04055718
Si       1.08703504       0.08683879       4.45044993       0.06795500      -0.05478034      -0.04055718
Si       4.08203050       1.66020852       3.06498739       0.06795500      -0.05478034       0.04055718
Si       4.90295589       3.05990067      10.58042470      -0.06795500       0.05478034       0.04055718
Si       4.59857346       1.08073913       5.41265228       0.06441679      -0.02651357      -0.00476709
Si       4.09398321       1.07062265      12.92808960      -0.06441679       0.02651357      -0.00476709
Si       1.39141747       2.06600033       9.61822235      -0.06441679       0.02651357       0.00476709
Si       1.89600771       2.07611681       2.10278503       0.06441679      -0.02651357       0.00476709
Si       2.38129612       0.92073872       6.45793877      -0.10603389      -0.01364447      -0.10052721
Si       0.61369934       0.65263101      13.97337609       0.10603389       0.01364447      -0.10052721
Si       3.60869481       2.22600074       8.57293586       0.10603389       0.01364447       0.10052721
Si       5.37629158       2.49410845       1.05749855      -0.10603389      -0.01364447       0.10052721
Si       2.84878060       0.28899603      -0.00000000       0.00000000      -0.00000000      -0.00000000
Si       0.14621486       1.28437370       7.51543732      -0.00000000      -0.00000000       0.00000000
14
Lattice="5.68533483772805 0.6224007334685714 2.525612249094146e-17 0.31122416473153514 2.594039132230049 -4.326854155993864e-15 1.5422409915935322e-15 -1.943391334304775e-14 15.00174822939801" Properties=species:S:1:pos:R:3:forces:R:3 unique_starting_index=0 config_type=initial n_minim_iter=14 energy=-2278.8062763705325 stress="-0.006411534599648151 0.0009494530786332736 -1.195125637164908e-16 0.0009494530786332736 0.0010540921330884222 -7.110244327017223e-16 -1.195125637164908e-16 -7.110244327017223e-16 0.002100486748838978" free_energy=-2278.8062763705325 pbc="T T T"
Si       1.93381528       1.63563029      11.93993830      -0.13724617       0.02706932       0.00176058
Si       1.06446422      -0.02741036       4.43906418       0.13724617      -0.02706932       0.00176058
Si       4.06274372       1.58080958       3.06180993       0.13724617      -0.02706932      -0.00176058
Si       4.93209478       3.24385022      10.56268405      -0.13724617       0.02706932      -0.00176058
Si       4.59650282       1.06421648       5.41613279      -0.00344877      -0.03788080       0.04039521
Si       4.08711152       1.16640419      12.91700690       0.00344877       0.03788080       0.04039521
Si       1.40005618       2.15222339       9.58561544       0.00344877       0.03788080      -0.04039521
Si       1.90944748       2.05003568       2.08474133      -0.00344877      -0.03788080      -0.04039521
Si       2.36255599       0.88186232       6.42275848      -0.06752930       0.01190781      -0.06910929
Si       0.63572351       0.72635761      13.92363260       0.06752930      -0.01190781      -0.06910929
Si       3.63400302       2.33457754       8.57898975       0.06752930      -0.01190781       0.06910929
Si       5.36083549       2.49008226       1.07811563      -0.06752930       0.01190781       0.06910929
Si       2.84266742       0.31120037      -0.00000000      -0.00000000      -0.00000000      -0.00000000
Si       0.15561208       1.29701957       7.50087411      -0.00000000      -0.00000000      -0.00000000
14
Lattice="5.696120923154443 0.669766897948999 7.130928736304201e-17 0.33287539909144614 2.6046560111843706 -4.317162511571043e-15 1.5205640524189624e-15 -1.9574961632949163e-14 14.92199946756224" Properties=species:S:1:pos:R:3:forces:R:3 unique_starting_index=0 config_type=initial n_minim_iter=15 energy=-2278.839215879227 stress="-0.004559212960880459 0.0006576190161007463 5.239589295376312e-16 0.0006576190161007463 0.001934726893807381 3.3778625670685863e-16 5.239589295376312e-16 3.3778625670685863e-16 0.00010510018141369584" free_energy=-2278.839215879227 pbc="T T T"
Si       1.92707939       1.77362995      11.88018751      -0.03149865      -0.00452151       0.01082133
Si       1.08741877      -0.13641850       4.41918777       0.03149865       0.00452151       0.01082133
Si       4.10191693       1.50079296       3.04181196       0.03149865       0.00452151      -0.01082133
Si       4.94157755       3.41084140      10.50281170      -0.03149865      -0.00452151      -0.01082133
Si       4.61925411       1.02099226       5.40359858       0.05214399      -0.06545709      -0.00623583
Si       4.09136498       1.28598609      12.86459832      -0.05214399       0.06545709      -0.00623583