18
Lattice="0.0 -2.7180733233619225 2.7180733233619225 2.7180733233619225 -2.7180733233619225 0.0 21.855560351641063 21.855560351641063 21.855560351641063" Properties=species:S:1:pos:R:3:travel:I:3:map_shift:I:3:n_neighb:I:1:orig_index:I:1:forces:R:3 cutoff=2.0 nneightol=1.2 bulk_struct_test=bulk_Si_diamond supercell_a1_in_bulk_lattice_coords="1 -1 0" n_minim_iter=11 energy=-2934.7441897226777 stress="-0.004201855695094324 0.002092963500705401 0.002092963500690018 0.002092963500705401 -0.004201855695089222 0.0020929635007492656 0.002092963500690018 0.0020929635007492656 -0.004201855695096856" free_energy=-2934.7441897226777 pbc="T T T"
Si      -0.03322560      -0.03322560      -0.03322560        0        0        0        0        0        0       21        1      -0.00029779      -0.00029779      -0.00029779
Si       1.33236099       1.33236099       1.33236099        0        0        0        0        0        0       21        2       0.00009112       0.00009112       0.00009112
Si       2.69745968      -0.02061364       2.69745968        0       -1        0        0        0        0       20        3       0.00001574       0.00001574       0.00001574
Si      -1.35083340      -4.06890673      -1.35083340        0       -1        1        0        0        0       20        4       0.00055469       0.00055469       0.00055469
Si      -2.76994410      -0.05187078      -2.76994410        1       -1        1        0        0        0       20        5      -0.00102556      -0.00102556      -0.00102556
Si      -1.39053588       1.32753744      -1.39053588        1       -1        1        0        0        0       20        6       0.00055017       0.00055017       0.00055017
Si       5.43928208       5.43928208       5.43928208        0        0        0        0        0        0       21        1       0.00002517       0.00002517       0.00002517
Si       6.80391962       6.80391962       6.80391962        0        0        0        0        0        0       21        2       0.00004769       0.00004769       0.00004769
Si       8.16918996       5.45111664       8.16918996        0       -1        0        0        0        0       20        3       0.00003411       0.00003411       0.00003411
Si       4.06214000       1.34406667       4.06214000        0       -1        1        0        0        0       20        4      -0.00003411      -0.00003411      -0.00003411
Si       2.70933701       5.42741033       2.70933701        1       -1        1        0        0        0       20        5      -0.00004769      -0.00004769      -0.00004769
Si       4.07397455       6.79204788       4.07397455        1       -1        1        0        0        0       20        6      -0.00002517      -0.00002517      -0.00002517
Si      10.90379251      10.90379251      10.90379251        0        0        0        0        0        0       21        1      -0.00055017      -0.00055017      -0.00055017
Si      12.28320073      12.28320073      12.28320073        0        0        0        0        0        0       21        2       0.00102556       0.00102556       0.00102556
Si      13.58216336      10.86409004      13.58216336        0       -1        0        0        0        0       20        3      -0.00055469      -0.00055469      -0.00055469
Si       9.53387027       6.81579695       9.53387027        0       -1        1        0        0        0       20        4      -0.00001574      -0.00001574      -0.00001574
Si       8.18089564      10.89896897       8.18089564        1       -1        1        0        0        0       20        5      -0.00009112      -0.00009112      -0.00009112
Si       9.54648223      12.26455555       9.54648223        1       -1        1        0        0        0       20        6       0.00029779       0.00029779       0.00029779
