8
Lattice="-3.3265643496807726 3.326564349680773 3.326564349680772 3.3265643496807726 -3.326564349680773 3.326564349680773 3.3265643496807726 3.3265643496807726 -3.3265643496807726" Properties=species:S:1:pos:R:3:forces:R:3 cutoff=-1.0 nneightol=1.2 n_minim_iter=5 energy=-1304.1270478026122 stress="0.00020867567164828152 -2.567780470845402e-17 7.118633522398667e-17 -2.567780470845402e-17 0.00020867567164823994 -6.980021286679854e-16 7.118633522398667e-17 -6.980021286679854e-16 0.00020867567164790072" free_energy=-1304.1270478026122 pbc="T T T"
Si       2.65207557       0.67448878      -0.67448878       0.00340337      -0.00340337       0.00340337
Si       4.00105313      -0.67448878       0.67448878      -0.00340337       0.00340337      -0.00340337
Si       0.67448878       0.67448878       0.67448878      -0.00340337      -0.00340337      -0.00340337
Si       0.67448878      -0.67448878       2.65207557      -0.00340337       0.00340337       0.00340337
Si      -0.67448878       2.65207557       0.67448878       0.00340337       0.00340337      -0.00340337
Si       0.67448878       4.00105313      -0.67448878      -0.00340337      -0.00340337       0.00340337
Si      -0.67448878       0.67448878       4.00105313       0.00340337      -0.00340337      -0.00340337
Si       2.65207557       2.65207557       2.65207557       0.00340337       0.00340337       0.00340337
