LAMMPS (27 Jun 2024 - Development - patch_17Apr2024-1524-g5a286ff933-modified)
  using 1 OpenMP thread(s) per MPI task
units metal
atom_style atomic
atom_modify map array sort 0 0
boundary p p p
box tilt large

The 'box' command has been removed and will be ignored

region cell prism    0 5.44 0 5.44 0 5.44     0.0 0.0 0.0     units box
create_box 1 cell
Created triclinic box = (0 0 0) to (5.44 5.44 5.44) with tilt (0 0 0)
  1 by 1 by 1 MPI processor grid
echo none
Created 8 atoms
  using lattice units in triclinic box = (0 0 0) to (5.44 5.44 5.44) with tilt (0 0 0)
  create_atoms CPU = 0.001 seconds
Setting atom values ...
  1 settings made for type
Setting atom values ...
  1 settings made for type
Setting atom values ...
  1 settings made for type
Setting atom values ...
  1 settings made for type
Setting atom values ...
  1 settings made for type
Setting atom values ...
  1 settings made for type
Setting atom values ...
  1 settings made for type
Setting atom values ...
  1 settings made for type
pair_style hybrid/overlay pace table spline 5000
ACE version: 2023.11.25
Recursive evaluator is used
pair_coeff * * pace /home/eng/phrffk/testing-framework/example_models/Si/models/Si_jl_ACE/0ce218cb3e.yace Si
Loading /home/eng/phrffk/testing-framework/example_models/Si/models/Si_jl_ACE/0ce218cb3e.yace
Total number of basis functions
	Si: 32 (r=1) 45284 (r>1)
Mapping LAMMPS atom type #1(Si) -> ACE species type #0
pair_coeff 1 1 table /home/eng/phrffk/testing-framework/example_models/Si/models/Si_jl_ACE/0ce218cb3e_pairpot.table Si_Si
Reading pair table potential file /home/eng/phrffk/testing-framework/example_models/Si/models/Si_jl_ACE/0ce218cb3e_pairpot.table with DATE: none
WARNING: 1 of 6000 force values in table Si_Si are inconsistent with -dE/dr.
WARNING:  Should only be flagged at inflection points (src/pair_table.cpp:473)
mass 1 28.084999992775294685998233035207
variable pxx equal pxx
variable pyy equal pyy
variable pzz equal pzz
variable pxy equal pxy
variable pxz equal pxz
variable pyz equal pyz
thermo_style custom pe pxx emol ecoul
variable fx atom fx
variable fy atom fy
variable fz atom fz
variable pe equal pe
neigh_modify delay 0 every 1 check yes
echo none
run 0
WARNING: No fixes with time integration, atoms won't move (src/verlet.cpp:60)
Neighbor list info ...
  update: every = 1 steps, delay = 0 steps, check = yes
  max neighbors/atom: 2000, page size: 100000
  master list distance cutoff = 8
  ghost atom cutoff = 8
  binsize = 4, bins = 2 2 2
  2 neighbor lists, perpetual/occasional/extra = 2 0 0
  (1) pair pace, perpetual
      attributes: full, newton on
      pair build: full/bin/atomonly
      stencil: full/bin/3d
      bin: standard
  (2) pair table, perpetual, half/full from (1)
      attributes: half, newton on
      pair build: halffull/newton/tri
      stencil: none
      bin: none
Per MPI rank memory allocation (min/avg/max) = 3.595 | 3.595 | 3.595 Mbytes
    PotEng          Pxx           E_mol          E_coul    
-1305.4161      10325.98       0              0            
Loop time of 1.004e-06 on 1 procs for 0 steps with 8 atoms

199.2% CPU use with 1 MPI tasks x 1 OpenMP threads

MPI task timing breakdown:
Section |  min time  |  avg time  |  max time  |%varavg| %total
---------------------------------------------------------------
Pair    | 0          | 0          | 0          |   0.0 |  0.00
Neigh   | 0          | 0          | 0          |   0.0 |  0.00
Comm    | 0          | 0          | 0          |   0.0 |  0.00
Output  | 0          | 0          | 0          |   0.0 |  0.00
Modify  | 0          | 0          | 0          |   0.0 |  0.00
Other   |            | 1.004e-06  |            |       |100.00

Nlocal:              8 ave           8 max           8 min
Histogram: 1 0 0 0 0 0 0 0 0 0
Nghost:            420 ave         420 max         420 min
Histogram: 1 0 0 0 0 0 0 0 0 0
Neighs:            392 ave         392 max         392 min
Histogram: 1 0 0 0 0 0 0 0 0 0
FullNghs:          784 ave         784 max         784 min
Histogram: 1 0 0 0 0 0 0 0 0 0

Total # of neighbors = 784
Ave neighs/atom = 98
Neighbor list builds = 0
Dangerous builds = 0
set atom * x 0.0 y 0.0 z 0.0
Setting atom values ...
  8 settings made for x
  8 settings made for y
  8 settings made for z
change_box all     x final 0 27.200000000000003 y final 0 5.44 z final 0 5.44      xy final 0.0 xz final 0.0 yz final 0.0 units box
Changing box ...
  triclinic box = (0 0 0) to (27.2 5.44 5.44) with tilt (0 0 0)
  triclinic box = (0 0 0) to (27.2 5.44 5.44) with tilt (0 0 0)
  triclinic box = (0 0 0) to (27.2 5.44 5.44) with tilt (0 0 0)
  triclinic box = (0 0 0) to (27.2 5.44 5.44) with tilt (0 0 0)
  triclinic box = (0 0 0) to (27.2 5.44 5.44) with tilt (0 0 0)
  triclinic box = (0 0 0) to (27.2 5.44 5.44) with tilt (0 0 0)
echo none
Created 32 atoms
  using lattice units in triclinic box = (0 0 0) to (27.2 5.44 5.44) with tilt (0 0 0)
  create_atoms CPU = 0.000 seconds
Setting atom values ...
  1 settings made for type
Setting atom values ...
  1 settings made for type
Setting atom values ...
  1 settings made for type
Setting atom values ...
  1 settings made for type
Setting atom values ...
  1 settings made for type
Setting atom values ...
  1 settings made for type
Setting atom values ...
  1 settings made for type
Setting atom values ...
  1 settings made for type
Setting atom values ...
  1 settings made for type
Setting atom values ...
  1 settings made for type
Setting atom values ...
  1 settings made for type
Setting atom values ...
  1 settings made for type
Setting atom values ...
  1 settings made for type
Setting atom values ...
  1 settings made for type
Setting atom values ...
  1 settings made for type
Setting atom values ...
  1 settings made for type
Setting atom values ...
  1 settings made for type
Setting atom values ...
  1 settings made for type
Setting atom values ...
  1 settings made for type
Setting atom values ...
  1 settings made for type
Setting atom values ...
  1 settings made for type
Setting atom values ...
  1 settings made for type
Setting atom values ...
  1 settings made for type
Setting atom values ...
  1 settings made for type
Setting atom values ...
  1 settings made for type
Setting atom values ...
  1 settings made for type
Setting atom values ...
  1 settings made for type
Setting atom values ...
  1 settings made for type
Setting atom values ...
  1 settings made for type
Setting atom values ...
  1 settings made for type
Setting atom values ...
  1 settings made for type
Setting atom values ...
  1 settings made for type
run 0
WARNING: No fixes with time integration, atoms won't move (src/verlet.cpp:60)
Per MPI rank memory allocation (min/avg/max) = 3.608 | 3.608 | 3.608 Mbytes
    PotEng          Pxx           E_mol          E_coul    
-6527.0805      10325.98       0              0            
Loop time of 6.21e-07 on 1 procs for 0 steps with 40 atoms

161.0% CPU use with 1 MPI tasks x 1 OpenMP threads

MPI task timing breakdown:
Section |  min time  |  avg time  |  max time  |%varavg| %total
---------------------------------------------------------------
Pair    | 0          | 0          | 0          |   0.0 |  0.00
Neigh   | 0          | 0          | 0          |   0.0 |  0.00
Comm    | 0          | 0          | 0          |   0.0 |  0.00
Output  | 0          | 0          | 0          |   0.0 |  0.00
Modify  | 0          | 0          | 0          |   0.0 |  0.00
Other   |            | 6.21e-07   |            |       |100.00

Nlocal:             40 ave          40 max          40 min
Histogram: 1 0 0 0 0 0 0 0 0 0
Nghost:            840 ave         840 max         840 min
Histogram: 1 0 0 0 0 0 0 0 0 0
Neighs:           1960 ave        1960 max        1960 min
Histogram: 1 0 0 0 0 0 0 0 0 0
FullNghs:         3920 ave        3920 max        3920 min
Histogram: 1 0 0 0 0 0 0 0 0 0

Total # of neighbors = 3920
Ave neighs/atom = 98
Neighbor list builds = 0
Dangerous builds = 0
set atom * x 0.0 y 0.0 z 0.0
Setting atom values ...
  40 settings made for x
  40 settings made for y
  40 settings made for z
change_box all     x final 0 27.300000000000004 y final 0 5.44 z final 0 5.44      xy final 0.0 xz final 0.0 yz final 0.0 units box
Changing box ...
  triclinic box = (0 0 0) to (27.3 5.44 5.44) with tilt (0 0 0)
  triclinic box = (0 0 0) to (27.3 5.44 5.44) with tilt (0 0 0)
  triclinic box = (0 0 0) to (27.3 5.44 5.44) with tilt (0 0 0)
  triclinic box = (0 0 0) to (27.3 5.44 5.44) with tilt (0 0 0)
  triclinic box = (0 0 0) to (27.3 5.44 5.44) with tilt (0 0 0)
  triclinic box = (0 0 0) to (27.3 5.44 5.44) with tilt (0 0 0)
echo none
run 0
WARNING: No fixes with time integration, atoms won't move (src/verlet.cpp:60)
Per MPI rank memory allocation (min/avg/max) = 3.608 | 3.608 | 3.608 Mbytes
    PotEng          Pxx           E_mol          E_coul    
-6527.0183      4673.2166      0              0            
Loop time of 6.47e-07 on 1 procs for 0 steps with 40 atoms

309.1% CPU use with 1 MPI tasks x 1 OpenMP threads

MPI task timing breakdown:
Section |  min time  |  avg time  |  max time  |%varavg| %total
---------------------------------------------------------------
Pair    | 0          | 0          | 0          |   0.0 |  0.00
Neigh   | 0          | 0          | 0          |   0.0 |  0.00
Comm    | 0          | 0          | 0          |   0.0 |  0.00
Output  | 0          | 0          | 0          |   0.0 |  0.00
Modify  | 0          | 0          | 0          |   0.0 |  0.00
Other   |            | 6.47e-07   |            |       |100.00

Nlocal:             40 ave          40 max          40 min
Histogram: 1 0 0 0 0 0 0 0 0 0
Nghost:            840 ave         840 max         840 min
Histogram: 1 0 0 0 0 0 0 0 0 0
Neighs:           1960 ave        1960 max        1960 min
Histogram: 1 0 0 0 0 0 0 0 0 0
FullNghs:         3920 ave        3920 max        3920 min
Histogram: 1 0 0 0 0 0 0 0 0 0

Total # of neighbors = 3920
Ave neighs/atom = 98
Neighbor list builds = 0
Dangerous builds = 0
set atom * x 0.0 y 0.0 z 0.0
Setting atom values ...
  40 settings made for x
  40 settings made for y
  40 settings made for z
change_box all     x final 0 27.200000000000003 y final 0 5.44 z final 0 5.44      xy final 0.0 xz final 0.0 yz final 0.0 units box
Changing box ...
  triclinic box = (0 0 0) to (27.2 5.44 5.44) with tilt (0 0 0)
  triclinic box = (0 0 0) to (27.2 5.44 5.44) with tilt (0 0 0)
  triclinic box = (0 0 0) to (27.2 5.44 5.44) with tilt (0 0 0)
  triclinic box = (0 0 0) to (27.2 5.44 5.44) with tilt (0 0 0)
  triclinic box = (0 0 0) to (27.2 5.44 5.44) with tilt (0 0 0)
  triclinic box = (0 0 0) to (27.2 5.44 5.44) with tilt (0 0 0)
echo none
run 0
WARNING: No fixes with time integration, atoms won't move (src/verlet.cpp:60)
Per MPI rank memory allocation (min/avg/max) = 3.608 | 3.608 | 3.608 Mbytes
    PotEng          Pxx           E_mol          E_coul    
-6527.0805      10325.98       0              0            
Loop time of 6.65e-07 on 1 procs for 0 steps with 40 atoms

300.8% CPU use with 1 MPI tasks x 1 OpenMP threads

MPI task timing breakdown:
Section |  min time  |  avg time  |  max time  |%varavg| %total
---------------------------------------------------------------
Pair    | 0          | 0          | 0          |   0.0 |  0.00
Neigh   | 0          | 0          | 0          |   0.0 |  0.00
Comm    | 0          | 0          | 0          |   0.0 |  0.00
Output  | 0          | 0          | 0          |   0.0 |  0.00
Modify  | 0          | 0          | 0          |   0.0 |  0.00
Other   |            | 6.65e-07   |            |       |100.00

Nlocal:             40 ave          40 max          40 min
Histogram: 1 0 0 0 0 0 0 0 0 0
Nghost:            840 ave         840 max         840 min
Histogram: 1 0 0 0 0 0 0 0 0 0
Neighs:           1960 ave        1960 max        1960 min
Histogram: 1 0 0 0 0 0 0 0 0 0
FullNghs:         3920 ave        3920 max        3920 min
Histogram: 1 0 0 0 0 0 0 0 0 0

Total # of neighbors = 3920
Ave neighs/atom = 98
Neighbor list builds = 0
Dangerous builds = 0
set atom * x 0.0 y 0.0 z 0.0
Setting atom values ...
  40 settings made for x
  40 settings made for y
  40 settings made for z
change_box all     x final 0 27.400000000000002 y final 0 5.44 z final 0 5.44      xy final 0.0 xz final 0.0 yz final 0.0 units box
Changing box ...
  triclinic box = (0 0 0) to (27.4 5.44 5.44) with tilt (0 0 0)
  triclinic box = (0 0 0) to (27.4 5.44 5.44) with tilt (0 0 0)
  triclinic box = (0 0 0) to (27.4 5.44 5.44) with tilt (0 0 0)
  triclinic box = (0 0 0) to (27.4 5.44 5.44) with tilt (0 0 0)
  triclinic box = (0 0 0) to (27.4 5.44 5.44) with tilt (0 0 0)
  triclinic box = (0 0 0) to (27.4 5.44 5.44) with tilt (0 0 0)
echo none
run 0
WARNING: No fixes with time integration, atoms won't move (src/verlet.cpp:60)
Per MPI rank memory allocation (min/avg/max) = 3.608 | 3.608 | 3.608 Mbytes
    PotEng          Pxx           E_mol          E_coul    
-6526.8088     -720.65244      0              0            
Loop time of 6.57e-07 on 1 procs for 0 steps with 40 atoms

152.2% CPU use with 1 MPI tasks x 1 OpenMP threads

MPI task timing breakdown:
Section |  min time  |  avg time  |  max time  |%varavg| %total
---------------------------------------------------------------
Pair    | 0          | 0          | 0          |   0.0 |  0.00
Neigh   | 0          | 0          | 0          |   0.0 |  0.00
Comm    | 0          | 0          | 0          |   0.0 |  0.00
Output  | 0          | 0          | 0          |   0.0 |  0.00
Modify  | 0          | 0          | 0          |   0.0 |  0.00
Other   |            | 6.57e-07   |            |       |100.00

Nlocal:             40 ave          40 max          40 min
Histogram: 1 0 0 0 0 0 0 0 0 0
Nghost:            840 ave         840 max         840 min
Histogram: 1 0 0 0 0 0 0 0 0 0
Neighs:           1960 ave        1960 max        1960 min
Histogram: 1 0 0 0 0 0 0 0 0 0
FullNghs:         3920 ave        3920 max        3920 min
Histogram: 1 0 0 0 0 0 0 0 0 0

Total # of neighbors = 3920
Ave neighs/atom = 98
Neighbor list builds = 0
Dangerous builds = 0
set atom * x 0.0 y 0.0 z 0.0
Setting atom values ...
  40 settings made for x
  40 settings made for y
  40 settings made for z
change_box all     x final 0 27.200000000000003 y final 0 5.44 z final 0 5.44      xy final 0.0 xz final 0.0 yz final 0.0 units box
Changing box ...
  triclinic box = (0 0 0) to (27.2 5.44 5.44) with tilt (0 0 0)
  triclinic box = (0 0 0) to (27.2 5.44 5.44) with tilt (0 0 0)
  triclinic box = (0 0 0) to (27.2 5.44 5.44) with tilt (0 0 0)
  triclinic box = (0 0 0) to (27.2 5.44 5.44) with tilt (0 0 0)
  triclinic box = (0 0 0) to (27.2 5.44 5.44) with tilt (0 0 0)
  triclinic box = (0 0 0) to (27.2 5.44 5.44) with tilt (0 0 0)
echo none
run 0
WARNING: No fixes with time integration, atoms won't move (src/verlet.cpp:60)
Per MPI rank memory allocation (min/avg/max) = 3.608 | 3.608 | 3.608 Mbytes
    PotEng          Pxx           E_mol          E_coul    
-6527.0805      10325.98       0              0            
Loop time of 6.34e-07 on 1 procs for 0 steps with 40 atoms

157.7% CPU use with 1 MPI tasks x 1 OpenMP threads

MPI task timing breakdown:
Section |  min time  |  avg time  |  max time  |%varavg| %total
---------------------------------------------------------------
Pair    | 0          | 0          | 0          |   0.0 |  0.00
Neigh   | 0          | 0          | 0          |   0.0 |  0.00
Comm    | 0          | 0          | 0          |   0.0 |  0.00
Output  | 0          | 0          | 0          |   0.0 |  0.00
Modify  | 0          | 0          | 0          |   0.0 |  0.00
Other   |            | 6.34e-07   |            |       |100.00

Nlocal:             40 ave          40 max          40 min
Histogram: 1 0 0 0 0 0 0 0 0 0
Nghost:            840 ave         840 max         840 min
Histogram: 1 0 0 0 0 0 0 0 0 0
Neighs:           1960 ave        1960 max        1960 min
Histogram: 1 0 0 0 0 0 0 0 0 0
FullNghs:         3920 ave        3920 max        3920 min
Histogram: 1 0 0 0 0 0 0 0 0 0

Total # of neighbors = 3920
Ave neighs/atom = 98
Neighbor list builds = 0
Dangerous builds = 0
set atom * x 0.0 y 0.0 z 0.0
Setting atom values ...
  40 settings made for x
  40 settings made for y
  40 settings made for z
change_box all     x final 0 27.500000000000004 y final 0 5.44 z final 0 5.44      xy final 0.0 xz final 0.0 yz final 0.0 units box
Changing box ...
  triclinic box = (0 0 0) to (27.5 5.44 5.44) with tilt (0 0 0)
  triclinic box = (0 0 0) to (27.5 5.44 5.44) with tilt (0 0 0)
  triclinic box = (0 0 0) to (27.5 5.44 5.44) with tilt (0 0 0)
  triclinic box = (0 0 0) to (27.5 5.44 5.44) with tilt (0 0 0)
  triclinic box = (0 0 0) to (27.5 5.44 5.44) with tilt (0 0 0)
  triclinic box = (0 0 0) to (27.5 5.44 5.44) with tilt (0 0 0)
echo none
run 0
WARNING: No fixes with time integration, atoms won't move (src/verlet.cpp:60)
Per MPI rank memory allocation (min/avg/max) = 3.608 | 3.608 | 3.608 Mbytes
    PotEng          Pxx           E_mol          E_coul    
-6526.4776     -5522.7144      0              0            
Loop time of 6.48e-07 on 1 procs for 0 steps with 40 atoms

154.3% CPU use with 1 MPI tasks x 1 OpenMP threads

MPI task timing breakdown:
Section |  min time  |  avg time  |  max time  |%varavg| %total
---------------------------------------------------------------
Pair    | 0          | 0          | 0          |   0.0 |  0.00
Neigh   | 0          | 0          | 0          |   0.0 |  0.00
Comm    | 0          | 0          | 0          |   0.0 |  0.00
Output  | 0          | 0          | 0          |   0.0 |  0.00
Modify  | 0          | 0          | 0          |   0.0 |  0.00
Other   |            | 6.48e-07   |            |       |100.00

Nlocal:             40 ave          40 max          40 min
Histogram: 1 0 0 0 0 0 0 0 0 0
Nghost:            840 ave         840 max         840 min
Histogram: 1 0 0 0 0 0 0 0 0 0
Neighs:           1960 ave        1960 max        1960 min
Histogram: 1 0 0 0 0 0 0 0 0 0
FullNghs:         3920 ave        3920 max        3920 min
Histogram: 1 0 0 0 0 0 0 0 0 0

Total # of neighbors = 3920
Ave neighs/atom = 98
Neighbor list builds = 0
Dangerous builds = 0
set atom * x 0.0 y 0.0 z 0.0
Setting atom values ...
  40 settings made for x
  40 settings made for y
  40 settings made for z
change_box all     x final 0 27.200000000000003 y final 0 5.44 z final 0 5.44      xy final 0.0 xz final 0.0 yz final 0.0 units box
Changing box ...
  triclinic box = (0 0 0) to (27.2 5.44 5.44) with tilt (0 0 0)
  triclinic box = (0 0 0) to (27.2 5.44 5.44) with tilt (0 0 0)
  triclinic box = (0 0 0) to (27.2 5.44 5.44) with tilt (0 0 0)
  triclinic box = (0 0 0) to (27.2 5.44 5.44) with tilt (0 0 0)
  triclinic box = (0 0 0) to (27.2 5.44 5.44) with tilt (0 0 0)
  triclinic box = (0 0 0) to (27.2 5.44 5.44) with tilt (0 0 0)
echo none
run 0
WARNING: No fixes with time integration, atoms won't move (src/verlet.cpp:60)
Per MPI rank memory allocation (min/avg/max) = 3.608 | 3.608 | 3.608 Mbytes
    PotEng          Pxx           E_mol          E_coul    
-6527.0805      10325.98       0              0            
Loop time of 6.61e-07 on 1 procs for 0 steps with 40 atoms

302.6% CPU use with 1 MPI tasks x 1 OpenMP threads

MPI task timing breakdown:
Section |  min time  |  avg time  |  max time  |%varavg| %total
---------------------------------------------------------------
Pair    | 0          | 0          | 0          |   0.0 |  0.00
Neigh   | 0          | 0          | 0          |   0.0 |  0.00
Comm    | 0          | 0          | 0          |   0.0 |  0.00
Output  | 0          | 0          | 0          |   0.0 |  0.00
Modify  | 0          | 0          | 0          |   0.0 |  0.00
Other   |            | 6.61e-07   |            |       |100.00

Nlocal:             40 ave          40 max          40 min
Histogram: 1 0 0 0 0 0 0 0 0 0
Nghost:            840 ave         840 max         840 min
Histogram: 1 0 0 0 0 0 0 0 0 0
Neighs:           1960 ave        1960 max        1960 min
Histogram: 1 0 0 0 0 0 0 0 0 0
FullNghs:         3920 ave        3920 max        3920 min
Histogram: 1 0 0 0 0 0 0 0 0 0

Total # of neighbors = 3920
Ave neighs/atom = 98
Neighbor list builds = 0
Dangerous builds = 0
set atom * x 0.0 y 0.0 z 0.0
Setting atom values ...
  40 settings made for x
  40 settings made for y
  40 settings made for z
change_box all     x final 0 27.6 y final 0 5.44 z final 0 5.44      xy final 0.0 xz final 0.0 yz final 0.0 units box
Changing box ...
  triclinic box = (0 0 0) to (27.6 5.44 5.44) with tilt (0 0 0)
  triclinic box = (0 0 0) to (27.6 5.44 5.44) with tilt (0 0 0)
  triclinic box = (0 0 0) to (27.6 5.44 5.44) with tilt (0 0 0)
  triclinic box = (0 0 0) to (27.6 5.44 5.44) with tilt (0 0 0)
  triclinic box = (0 0 0) to (27.6 5.44 5.44) with tilt (0 0 0)
  triclinic box = (0 0 0) to (27.6 5.44 5.44) with tilt (0 0 0)
echo none
run 0
WARNING: No fixes with time integration, atoms won't move (src/verlet.cpp:60)
Per MPI rank memory allocation (min/avg/max) = 3.608 | 3.608 | 3.608 Mbytes
    PotEng          Pxx           E_mol          E_coul    
-6526.0531     -9488.4924      0              0            
Loop time of 6.62e-07 on 1 procs for 0 steps with 40 atoms

302.1% CPU use with 1 MPI tasks x 1 OpenMP threads

MPI task timing breakdown:
Section |  min time  |  avg time  |  max time  |%varavg| %total
---------------------------------------------------------------
Pair    | 0          | 0          | 0          |   0.0 |  0.00
Neigh   | 0          | 0          | 0          |   0.0 |  0.00
Comm    | 0          | 0          | 0          |   0.0 |  0.00
Output  | 0          | 0          | 0          |   0.0 |  0.00
Modify  | 0          | 0          | 0          |   0.0 |  0.00
Other   |            | 6.62e-07   |            |       |100.00

Nlocal:             40 ave          40 max          40 min
Histogram: 1 0 0 0 0 0 0 0 0 0
Nghost:            840 ave         840 max         840 min
Histogram: 1 0 0 0 0 0 0 0 0 0
Neighs:           1960 ave        1960 max        1960 min
Histogram: 1 0 0 0 0 0 0 0 0 0
FullNghs:         3920 ave        3920 max        3920 min
Histogram: 1 0 0 0 0 0 0 0 0 0

Total # of neighbors = 3920
Ave neighs/atom = 98
Neighbor list builds = 0
Dangerous builds = 0
set atom * x 0.0 y 0.0 z 0.0
Setting atom values ...
  40 settings made for x
  40 settings made for y
  40 settings made for z
change_box all     x final 0 27.200000000000003 y final 0 5.44 z final 0 5.44      xy final 0.0 xz final 0.0 yz final 0.0 units box
Changing box ...
  triclinic box = (0 0 0) to (27.2 5.44 5.44) with tilt (0 0 0)
  triclinic box = (0 0 0) to (27.2 5.44 5.44) with tilt (0 0 0)
  triclinic box = (0 0 0) to (27.2 5.44 5.44) with tilt (0 0 0)
  triclinic box = (0 0 0) to (27.2 5.44 5.44) with tilt (0 0 0)
  triclinic box = (0 0 0) to (27.2 5.44 5.44) with tilt (0 0 0)
  triclinic box = (0 0 0) to (27.2 5.44 5.44) with tilt (0 0 0)
echo none
run 0
WARNING: No fixes with time integration, atoms won't move (src/verlet.cpp:60)
Per MPI rank memory allocation (min/avg/max) = 3.608 | 3.608 | 3.608 Mbytes
    PotEng          Pxx           E_mol          E_coul    
-6527.0805      10325.98       0              0            
Loop time of 6.59e-07 on 1 procs for 0 steps with 40 atoms

151.7% CPU use with 1 MPI tasks x 1 OpenMP threads

MPI task timing breakdown:
Section |  min time  |  avg time  |  max time  |%varavg| %total
---------------------------------------------------------------
Pair    | 0          | 0          | 0          |   0.0 |  0.00
Neigh   | 0          | 0          | 0          |   0.0 |  0.00
Comm    | 0          | 0          | 0          |   0.0 |  0.00
Output  | 0          | 0          | 0          |   0.0 |  0.00
Modify  | 0          | 0          | 0          |   0.0 |  0.00
Other   |            | 6.59e-07   |            |       |100.00

Nlocal:             40 ave          40 max          40 min
Histogram: 1 0 0 0 0 0 0 0 0 0
Nghost:            840 ave         840 max         840 min
Histogram: 1 0 0 0 0 0 0 0 0 0
Neighs:           1960 ave        1960 max        1960 min
Histogram: 1 0 0 0 0 0 0 0 0 0
FullNghs:         3920 ave        3920 max        3920 min
Histogram: 1 0 0 0 0 0 0 0 0 0

Total # of neighbors = 3920
Ave neighs/atom = 98
Neighbor list builds = 0
Dangerous builds = 0
set atom * x 0.0 y 0.0 z 0.0
Setting atom values ...
  40 settings made for x
  40 settings made for y
  40 settings made for z
change_box all     x final 0 27.700000000000003 y final 0 5.44 z final 0 5.44      xy final 0.0 xz final 0.0 yz final 0.0 units box
Changing box ...
  triclinic box = (0 0 0) to (27.7 5.44 5.44) with tilt (0 0 0)
  triclinic box = (0 0 0) to (27.7 5.44 5.44) with tilt (0 0 0)
  triclinic box = (0 0 0) to (27.7 5.44 5.44) with tilt (0 0 0)
  triclinic box = (0 0 0) to (27.7 5.44 5.44) with tilt (0 0 0)
  triclinic box = (0 0 0) to (27.7 5.44 5.44) with tilt (0 0 0)
  triclinic box = (0 0 0) to (27.7 5.44 5.44) with tilt (0 0 0)
echo none
run 0
WARNING: No fixes with time integration, atoms won't move (src/verlet.cpp:60)
Per MPI rank memory allocation (min/avg/max) = 3.608 | 3.608 | 3.608 Mbytes
    PotEng          Pxx           E_mol          E_coul    
-6525.5641     -12463.964      0              0            
Loop time of 6.5e-07 on 1 procs for 0 steps with 40 atoms

153.8% CPU use with 1 MPI tasks x 1 OpenMP threads

MPI task timing breakdown:
Section |  min time  |  avg time  |  max time  |%varavg| %total
---------------------------------------------------------------
Pair    | 0          | 0          | 0          |   0.0 |  0.00
Neigh   | 0          | 0          | 0          |   0.0 |  0.00
Comm    | 0          | 0          | 0          |   0.0 |  0.00
Output  | 0          | 0          | 0          |   0.0 |  0.00
Modify  | 0          | 0          | 0          |   0.0 |  0.00
Other   |            | 6.5e-07    |            |       |100.00

Nlocal:             40 ave          40 max          40 min
Histogram: 1 0 0 0 0 0 0 0 0 0
Nghost:            840 ave         840 max         840 min
Histogram: 1 0 0 0 0 0 0 0 0 0
Neighs:           1928 ave        1928 max        1928 min
Histogram: 1 0 0 0 0 0 0 0 0 0
FullNghs:         3856 ave        3856 max        3856 min
Histogram: 1 0 0 0 0 0 0 0 0 0

Total # of neighbors = 3856
Ave neighs/atom = 96.4
Neighbor list builds = 0
Dangerous builds = 0
set atom * x 0.0 y 0.0 z 0.0
Setting atom values ...
  40 settings made for x
  40 settings made for y
  40 settings made for z
change_box all     x final 0 27.200000000000003 y final 0 5.44 z final 0 5.44      xy final 0.0 xz final 0.0 yz final 0.0 units box
Changing box ...
  triclinic box = (0 0 0) to (27.2 5.44 5.44) with tilt (0 0 0)
  triclinic box = (0 0 0) to (27.2 5.44 5.44) with tilt (0 0 0)
  triclinic box = (0 0 0) to (27.2 5.44 5.44) with tilt (0 0 0)
  triclinic box = (0 0 0) to (27.2 5.44 5.44) with tilt (0 0 0)
  triclinic box = (0 0 0) to (27.2 5.44 5.44) with tilt (0 0 0)
  triclinic box = (0 0 0) to (27.2 5.44 5.44) with tilt (0 0 0)
echo none
run 0
WARNING: No fixes with time integration, atoms won't move (src/verlet.cpp:60)
Per MPI rank memory allocation (min/avg/max) = 3.608 | 3.608 | 3.608 Mbytes
    PotEng          Pxx           E_mol          E_coul    
-6527.0805      10325.98       0              0            
Loop time of 6.47e-07 on 1 procs for 0 steps with 40 atoms

154.6% CPU use with 1 MPI tasks x 1 OpenMP threads

MPI task timing breakdown:
Section |  min time  |  avg time  |  max time  |%varavg| %total
---------------------------------------------------------------
Pair    | 0          | 0          | 0          |   0.0 |  0.00
Neigh   | 0          | 0          | 0          |   0.0 |  0.00
Comm    | 0          | 0          | 0          |   0.0 |  0.00
Output  | 0          | 0          | 0          |   0.0 |  0.00
Modify  | 0          | 0          | 0          |   0.0 |  0.00
Other   |            | 6.47e-07   |            |       |100.00

Nlocal:             40 ave          40 max          40 min
Histogram: 1 0 0 0 0 0 0 0 0 0
Nghost:            840 ave         840 max         840 min
Histogram: 1 0 0 0 0 0 0 0 0 0
Neighs:           1960 ave        1960 max        1960 min
Histogram: 1 0 0 0 0 0 0 0 0 0
FullNghs:         3920 ave        3920 max        3920 min
Histogram: 1 0 0 0 0 0 0 0 0 0

Total # of neighbors = 3920
Ave neighs/atom = 98
Neighbor list builds = 0
Dangerous builds = 0
set atom * x 0.0 y 0.0 z 0.0
Setting atom values ...
  40 settings made for x
  40 settings made for y
  40 settings made for z
change_box all     x final 0 27.800000000000004 y final 0 5.44 z final 0 5.44      xy final 0.0 xz final 0.0 yz final 0.0 units box
Changing box ...
  triclinic box = (0 0 0) to (27.8 5.44 5.44) with tilt (0 0 0)
  triclinic box = (0 0 0) to (27.8 5.44 5.44) with tilt (0 0 0)
  triclinic box = (0 0 0) to (27.8 5.44 5.44) with tilt (0 0 0)
  triclinic box = (0 0 0) to (27.8 5.44 5.44) with tilt (0 0 0)
  triclinic box = (0 0 0) to (27.8 5.44 5.44) with tilt (0 0 0)
  triclinic box = (0 0 0) to (27.8 5.44 5.44) with tilt (0 0 0)
echo none
run 0
WARNING: No fixes with time integration, atoms won't move (src/verlet.cpp:60)
Per MPI rank memory allocation (min/avg/max) = 3.608 | 3.608 | 3.608 Mbytes
    PotEng          Pxx           E_mol          E_coul    
-6525.0368     -14505.635      0              0            
Loop time of 6.55e-07 on 1 procs for 0 steps with 40 atoms

152.7% CPU use with 1 MPI tasks x 1 OpenMP threads

MPI task timing breakdown:
Section |  min time  |  avg time  |  max time  |%varavg| %total
---------------------------------------------------------------
Pair    | 0          | 0          | 0          |   0.0 |  0.00
Neigh   | 0          | 0          | 0          |   0.0 |  0.00
Comm    | 0          | 0          | 0          |   0.0 |  0.00
Output  | 0          | 0          | 0          |   0.0 |  0.00
Modify  | 0          | 0          | 0          |   0.0 |  0.00
Other   |            | 6.55e-07   |            |       |100.00

Nlocal:             40 ave          40 max          40 min
Histogram: 1 0 0 0 0 0 0 0 0 0
Nghost:            840 ave         840 max         840 min
Histogram: 1 0 0 0 0 0 0 0 0 0
Neighs:           1928 ave        1928 max        1928 min
Histogram: 1 0 0 0 0 0 0 0 0 0
FullNghs:         3856 ave        3856 max        3856 min
Histogram: 1 0 0 0 0 0 0 0 0 0

Total # of neighbors = 3856
Ave neighs/atom = 96.4
Neighbor list builds = 0
Dangerous builds = 0
set atom * x 0.0 y 0.0 z 0.0
Setting atom values ...
  40 settings made for x
  40 settings made for y
  40 settings made for z
change_box all     x final 0 27.200000000000003 y final 0 5.44 z final 0 5.44      xy final 0.0 xz final 0.0 yz final 0.0 units box
Changing box ...
  triclinic box = (0 0 0) to (27.2 5.44 5.44) with tilt (0 0 0)
  triclinic box = (0 0 0) to (27.2 5.44 5.44) with tilt (0 0 0)
  triclinic box = (0 0 0) to (27.2 5.44 5.44) with tilt (0 0 0)
  triclinic box = (0 0 0) to (27.2 5.44 5.44) with tilt (0 0 0)
  triclinic box = (0 0 0) to (27.2 5.44 5.44) with tilt (0 0 0)
  triclinic box = (0 0 0) to (27.2 5.44 5.44) with tilt (0 0 0)
echo none
run 0
WARNING: No fixes with time integration, atoms won't move (src/verlet.cpp:60)
Per MPI rank memory allocation (min/avg/max) = 3.608 | 3.608 | 3.608 Mbytes
    PotEng          Pxx           E_mol          E_coul    
-6527.0805      10325.98       0              0            
Loop time of 6.5e-07 on 1 procs for 0 steps with 40 atoms

153.8% CPU use with 1 MPI tasks x 1 OpenMP threads

MPI task timing breakdown:
Section |  min time  |  avg time  |  max time  |%varavg| %total
---------------------------------------------------------------
Pair    | 0          | 0          | 0          |   0.0 |  0.00
Neigh   | 0          | 0          | 0          |   0.0 |  0.00
Comm    | 0          | 0          | 0          |   0.0 |  0.00
Output  | 0          | 0          | 0          |   0.0 |  0.00
Modify  | 0          | 0          | 0          |   0.0 |  0.00
Other   |            | 6.5e-07    |            |       |100.00

Nlocal:             40 ave          40 max          40 min
Histogram: 1 0 0 0 0 0 0 0 0 0
Nghost:            840 ave         840 max         840 min
Histogram: 1 0 0 0 0 0 0 0 0 0
Neighs:           1960 ave        1960 max        1960 min
Histogram: 1 0 0 0 0 0 0 0 0 0
FullNghs:         3920 ave        3920 max        3920 min
Histogram: 1 0 0 0 0 0 0 0 0 0

Total # of neighbors = 3920
Ave neighs/atom = 98
Neighbor list builds = 0
Dangerous builds = 0
set atom * x 0.0 y 0.0 z 0.0
Setting atom values ...
  40 settings made for x
  40 settings made for y
  40 settings made for z
change_box all     x final 0 27.900000000000002 y final 0 5.44 z final 0 5.44      xy final 0.0 xz final 0.0 yz final 0.0 units box
Changing box ...
  triclinic box = (0 0 0) to (27.9 5.44 5.44) with tilt (0 0 0)
  triclinic box = (0 0 0) to (27.9 5.44 5.44) with tilt (0 0 0)
  triclinic box = (0 0 0) to (27.9 5.44 5.44) with tilt (0 0 0)
  triclinic box = (0 0 0) to (27.9 5.44 5.44) with tilt (0 0 0)
  triclinic box = (0 0 0) to (27.9 5.44 5.44) with tilt (0 0 0)
  triclinic box = (0 0 0) to (27.9 5.44 5.44) with tilt (0 0 0)
echo none
run 0
WARNING: No fixes with time integration, atoms won't move (src/verlet.cpp:60)
Per MPI rank memory allocation (min/avg/max) = 3.608 | 3.608 | 3.608 Mbytes
    PotEng          Pxx           E_mol          E_coul    
-6524.492      -15851.677      0              0            
Loop time of 6.51e-07 on 1 procs for 0 steps with 40 atoms

307.2% CPU use with 1 MPI tasks x 1 OpenMP threads

MPI task timing breakdown:
Section |  min time  |  avg time  |  max time  |%varavg| %total
---------------------------------------------------------------
Pair    | 0          | 0          | 0          |   0.0 |  0.00
Neigh   | 0          | 0          | 0          |   0.0 |  0.00
Comm    | 0          | 0          | 0          |   0.0 |  0.00
Output  | 0          | 0          | 0          |   0.0 |  0.00
Modify  | 0          | 0          | 0          |   0.0 |  0.00
Other   |            | 6.51e-07   |            |       |100.00

Nlocal:             40 ave          40 max          40 min
Histogram: 1 0 0 0 0 0 0 0 0 0
Nghost:            840 ave         840 max         840 min
Histogram: 1 0 0 0 0 0 0 0 0 0
Neighs:           1928 ave        1928 max        1928 min
Histogram: 1 0 0 0 0 0 0 0 0 0
FullNghs:         3856 ave        3856 max        3856 min
Histogram: 1 0 0 0 0 0 0 0 0 0

Total # of neighbors = 3856
Ave neighs/atom = 96.4
Neighbor list builds = 0
Dangerous builds = 0
set atom * x 0.0 y 0.0 z 0.0
Setting atom values ...
  40 settings made for x
  40 settings made for y
  40 settings made for z
change_box all     x final 0 27.200000000000003 y final 0 5.44 z final 0 5.44      xy final 0.0 xz final 0.0 yz final 0.0 units box
Changing box ...
  triclinic box = (0 0 0) to (27.2 5.44 5.44) with tilt (0 0 0)
  triclinic box = (0 0 0) to (27.2 5.44 5.44) with tilt (0 0 0)
  triclinic box = (0 0 0) to (27.2 5.44 5.44) with tilt (0 0 0)
  triclinic box = (0 0 0) to (27.2 5.44 5.44) with tilt (0 0 0)
  triclinic box = (0 0 0) to (27.2 5.44 5.44) with tilt (0 0 0)
  triclinic box = (0 0 0) to (27.2 5.44 5.44) with tilt (0 0 0)
echo none
run 0
WARNING: No fixes with time integration, atoms won't move (src/verlet.cpp:60)
Per MPI rank memory allocation (min/avg/max) = 3.608 | 3.608 | 3.608 Mbytes
    PotEng          Pxx           E_mol          E_coul    
-6527.0805      10325.98       0              0            
Loop time of 6.61e-07 on 1 procs for 0 steps with 40 atoms

151.3% CPU use with 1 MPI tasks x 1 OpenMP threads

MPI task timing breakdown:
Section |  min time  |  avg time  |  max time  |%varavg| %total
---------------------------------------------------------------
Pair    | 0          | 0          | 0          |   0.0 |  0.00
Neigh   | 0          | 0          | 0          |   0.0 |  0.00
Comm    | 0          | 0          | 0          |   0.0 |  0.00
Output  | 0          | 0          | 0          |   0.0 |  0.00
Modify  | 0          | 0          | 0          |   0.0 |  0.00
Other   |            | 6.61e-07   |            |       |100.00

Nlocal:             40 ave          40 max          40 min
Histogram: 1 0 0 0 0 0 0 0 0 0
Nghost:            840 ave         840 max         840 min
Histogram: 1 0 0 0 0 0 0 0 0 0
Neighs:           1960 ave        1960 max        1960 min
Histogram: 1 0 0 0 0 0 0 0 0 0
FullNghs:         3920 ave        3920 max        3920 min
Histogram: 1 0 0 0 0 0 0 0 0 0

Total # of neighbors = 3920
Ave neighs/atom = 98
Neighbor list builds = 0
Dangerous builds = 0
set atom * x 0.0 y 0.0 z 0.0
Setting atom values ...
  40 settings made for x
  40 settings made for y
  40 settings made for z
change_box all     x final 0 28.000000000000004 y final 0 5.44 z final 0 5.44      xy final 0.0 xz final 0.0 yz final 0.0 units box
Changing box ...
  triclinic box = (0 0 0) to (28 5.44 5.44) with tilt (0 0 0)
  triclinic box = (0 0 0) to (28 5.44 5.44) with tilt (0 0 0)
  triclinic box = (0 0 0) to (28 5.44 5.44) with tilt (0 0 0)
  triclinic box = (0 0 0) to (28 5.44 5.44) with tilt (0 0 0)
  triclinic box = (0 0 0) to (28 5.44 5.44) with tilt (0 0 0)
  triclinic box = (0 0 0) to (28 5.44 5.44) with tilt (0 0 0)
echo none
run 0
WARNING: No fixes with time integration, atoms won't move (src/verlet.cpp:60)
Per MPI rank memory allocation (min/avg/max) = 3.608 | 3.608 | 3.608 Mbytes
    PotEng          Pxx           E_mol          E_coul    
-6523.9482     -16457.967      0              0            
Loop time of 6.51e-07 on 1 procs for 0 steps with 40 atoms

153.6% CPU use with 1 MPI tasks x 1 OpenMP threads

MPI task timing breakdown:
Section |  min time  |  avg time  |  max time  |%varavg| %total
---------------------------------------------------------------
Pair    | 0          | 0          | 0          |   0.0 |  0.00
Neigh   | 0          | 0          | 0          |   0.0 |  0.00
Comm    | 0          | 0          | 0          |   0.0 |  0.00
Output  | 0          | 0          | 0          |   0.0 |  0.00
Modify  | 0          | 0          | 0          |   0.0 |  0.00
Other   |            | 6.51e-07   |            |       |100.00

Nlocal:             40 ave          40 max          40 min
Histogram: 1 0 0 0 0 0 0 0 0 0
Nghost:            840 ave         840 max         840 min
Histogram: 1 0 0 0 0 0 0 0 0 0
Neighs:           1928 ave        1928 max        1928 min
Histogram: 1 0 0 0 0 0 0 0 0 0
FullNghs:         3856 ave        3856 max        3856 min
Histogram: 1 0 0 0 0 0 0 0 0 0

Total # of neighbors = 3856
Ave neighs/atom = 96.4
Neighbor list builds = 0
Dangerous builds = 0
set atom * x 0.0 y 0.0 z 0.0
Setting atom values ...
  40 settings made for x
  40 settings made for y
  40 settings made for z
change_box all     x final 0 27.200000000000003 y final 0 5.44 z final 0 5.44      xy final 0.0 xz final 0.0 yz final 0.0 units box
Changing box ...
  triclinic box = (0 0 0) to (27.2 5.44 5.44) with tilt (0 0 0)
  triclinic box = (0 0 0) to (27.2 5.44 5.44) with tilt (0 0 0)
  triclinic box = (0 0 0) to (27.2 5.44 5.44) with tilt (0 0 0)
  triclinic box = (0 0 0) to (27.2 5.44 5.44) with tilt (0 0 0)
  triclinic box = (0 0 0) to (27.2 5.44 5.44) with tilt (0 0 0)
  triclinic box = (0 0 0) to (27.2 5.44 5.44) with tilt (0 0 0)
echo none
run 0
WARNING: No fixes with time integration, atoms won't move (src/verlet.cpp:60)
Per MPI rank memory allocation (min/avg/max) = 3.608 | 3.608 | 3.608 Mbytes
    PotEng          Pxx           E_mol          E_coul    
-6527.0805      10325.98       0              0            
Loop time of 6.45e-07 on 1 procs for 0 steps with 40 atoms

155.0% CPU use with 1 MPI tasks x 1 OpenMP threads

MPI task timing breakdown:
Section |  min time  |  avg time  |  max time  |%varavg| %total
---------------------------------------------------------------
Pair    | 0          | 0          | 0          |   0.0 |  0.00
Neigh   | 0          | 0          | 0          |   0.0 |  0.00
Comm    | 0          | 0          | 0          |   0.0 |  0.00
Output  | 0          | 0          | 0          |   0.0 |  0.00
Modify  | 0          | 0          | 0          |   0.0 |  0.00
Other   |            | 6.45e-07   |            |       |100.00

Nlocal:             40 ave          40 max          40 min
Histogram: 1 0 0 0 0 0 0 0 0 0
Nghost:            840 ave         840 max         840 min
Histogram: 1 0 0 0 0 0 0 0 0 0
Neighs:           1960 ave        1960 max        1960 min
Histogram: 1 0 0 0 0 0 0 0 0 0
FullNghs:         3920 ave        3920 max        3920 min
Histogram: 1 0 0 0 0 0 0 0 0 0

Total # of neighbors = 3920
Ave neighs/atom = 98
Neighbor list builds = 0
Dangerous builds = 0
set atom * x 0.0 y 0.0 z 0.0
Setting atom values ...
  40 settings made for x
  40 settings made for y
  40 settings made for z
change_box all     x final 0 28.1 y final 0 5.44 z final 0 5.44      xy final 0.0 xz final 0.0 yz final 0.0 units box
Changing box ...
  triclinic box = (0 0 0) to (28.1 5.44 5.44) with tilt (0 0 0)
  triclinic box = (0 0 0) to (28.1 5.44 5.44) with tilt (0 0 0)
  triclinic box = (0 0 0) to (28.1 5.44 5.44) with tilt (0 0 0)
  triclinic box = (0 0 0) to (28.1 5.44 5.44) with tilt (0 0 0)
  triclinic box = (0 0 0) to (28.1 5.44 5.44) with tilt (0 0 0)
  triclinic box = (0 0 0) to (28.1 5.44 5.44) with tilt (0 0 0)
echo none
run 0
WARNING: No fixes with time integration, atoms won't move (src/verlet.cpp:60)
Per MPI rank memory allocation (min/avg/max) = 3.608 | 3.608 | 3.608 Mbytes
    PotEng          Pxx           E_mol          E_coul    
-6523.4234     -16288.962      0              0            
Loop time of 6.27e-07 on 1 procs for 0 steps with 40 atoms

159.5% CPU use with 1 MPI tasks x 1 OpenMP threads

MPI task timing breakdown:
Section |  min time  |  avg time  |  max time  |%varavg| %total
---------------------------------------------------------------
Pair    | 0          | 0          | 0          |   0.0 |  0.00
Neigh   | 0          | 0          | 0          |   0.0 |  0.00
Comm    | 0          | 0          | 0          |   0.0 |  0.00
Output  | 0          | 0          | 0          |   0.0 |  0.00
Modify  | 0          | 0          | 0          |   0.0 |  0.00
Other   |            | 6.27e-07   |            |       |100.00

Nlocal:             40 ave          40 max          40 min
Histogram: 1 0 0 0 0 0 0 0 0 0
Nghost:            840 ave         840 max         840 min
Histogram: 1 0 0 0 0 0 0 0 0 0
Neighs:           1928 ave        1928 max        1928 min
Histogram: 1 0 0 0 0 0 0 0 0 0
FullNghs:         3856 ave        3856 max        3856 min
Histogram: 1 0 0 0 0 0 0 0 0 0

Total # of neighbors = 3856
Ave neighs/atom = 96.4
Neighbor list builds = 0
Dangerous builds = 0
set atom * x 0.0 y 0.0 z 0.0
Setting atom values ...
  40 settings made for x
  40 settings made for y
  40 settings made for z
change_box all     x final 0 27.200000000000003 y final 0 5.44 z final 0 5.44      xy final 0.0 xz final 0.0 yz final 0.0 units box
Changing box ...
  triclinic box = (0 0 0) to (27.2 5.44 5.44) with tilt (0 0 0)
  triclinic box = (0 0 0) to (27.2 5.44 5.44) with tilt (0 0 0)
  triclinic box = (0 0 0) to (27.2 5.44 5.44) with tilt (0 0 0)
  triclinic box = (0 0 0) to (27.2 5.44 5.44) with tilt (0 0 0)
  triclinic box = (0 0 0) to (27.2 5.44 5.44) with tilt (0 0 0)
  triclinic box = (0 0 0) to (27.2 5.44 5.44) with tilt (0 0 0)
echo none
run 0
WARNING: No fixes with time integration, atoms won't move (src/verlet.cpp:60)
Per MPI rank memory allocation (min/avg/max) = 3.608 | 3.608 | 3.608 Mbytes
    PotEng          Pxx           E_mol          E_coul    
-6527.0805      10325.98       0              0            
Loop time of 6.39e-07 on 1 procs for 0 steps with 40 atoms

156.5% CPU use with 1 MPI tasks x 1 OpenMP threads

MPI task timing breakdown:
Section |  min time  |  avg time  |  max time  |%varavg| %total
---------------------------------------------------------------
Pair    | 0          | 0          | 0          |   0.0 |  0.00
Neigh   | 0          | 0          | 0          |   0.0 |  0.00
Comm    | 0          | 0          | 0          |   0.0 |  0.00
Output  | 0          | 0          | 0          |   0.0 |  0.00
Modify  | 0          | 0          | 0          |   0.0 |  0.00
Other   |            | 6.39e-07   |            |       |100.00

Nlocal:             40 ave          40 max          40 min
Histogram: 1 0 0 0 0 0 0 0 0 0
Nghost:            840 ave         840 max         840 min
Histogram: 1 0 0 0 0 0 0 0 0 0
Neighs:           1960 ave        1960 max        1960 min
Histogram: 1 0 0 0 0 0 0 0 0 0
FullNghs:         3920 ave        3920 max        3920 min
Histogram: 1 0 0 0 0 0 0 0 0 0

Total # of neighbors = 3920
Ave neighs/atom = 98
Neighbor list builds = 0
Dangerous builds = 0
set atom * x 0.0 y 0.0 z 0.0
Setting atom values ...
  40 settings made for x
  40 settings made for y
  40 settings made for z
change_box all     x final 0 28.200000000000003 y final 0 5.44 z final 0 5.44      xy final 0.0 xz final 0.0 yz final 0.0 units box
Changing box ...
  triclinic box = (0 0 0) to (28.2 5.44 5.44) with tilt (0 0 0)
  triclinic box = (0 0 0) to (28.2 5.44 5.44) with tilt (0 0 0)
  triclinic box = (0 0 0) to (28.2 5.44 5.44) with tilt (0 0 0)
  triclinic box = (0 0 0) to (28.2 5.44 5.44) with tilt (0 0 0)
  triclinic box = (0 0 0) to (28.2 5.44 5.44) with tilt (0 0 0)
  triclinic box = (0 0 0) to (28.2 5.44 5.44) with tilt (0 0 0)
echo none
run 0
WARNING: No fixes with time integration, atoms won't move (src/verlet.cpp:60)
Per MPI rank memory allocation (min/avg/max) = 3.608 | 3.608 | 3.608 Mbytes
    PotEng          Pxx           E_mol          E_coul    
-6522.9336     -15400.148      0              0            
Loop time of 6.74e-07 on 1 procs for 0 steps with 40 atoms

148.4% CPU use with 1 MPI tasks x 1 OpenMP threads

MPI task timing breakdown:
Section |  min time  |  avg time  |  max time  |%varavg| %total
---------------------------------------------------------------
Pair    | 0          | 0          | 0          |   0.0 |  0.00
Neigh   | 0          | 0          | 0          |   0.0 |  0.00
Comm    | 0          | 0          | 0          |   0.0 |  0.00
Output  | 0          | 0          | 0          |   0.0 |  0.00
Modify  | 0          | 0          | 0          |   0.0 |  0.00
Other   |            | 6.74e-07   |            |       |100.00

Nlocal:             40 ave          40 max          40 min
Histogram: 1 0 0 0 0 0 0 0 0 0
Nghost:            840 ave         840 max         840 min
Histogram: 1 0 0 0 0 0 0 0 0 0
Neighs:           1908 ave        1908 max        1908 min
Histogram: 1 0 0 0 0 0 0 0 0 0
FullNghs:         3816 ave        3816 max        3816 min
Histogram: 1 0 0 0 0 0 0 0 0 0

Total # of neighbors = 3816
Ave neighs/atom = 95.4
Neighbor list builds = 0
Dangerous builds = 0
set atom * x 0.0 y 0.0 z 0.0
Setting atom values ...
  40 settings made for x
  40 settings made for y
  40 settings made for z
change_box all     x final 0 27.200000000000003 y final 0 5.44 z final 0 5.44      xy final 0.0 xz final 0.0 yz final 0.0 units box
Changing box ...
  triclinic box = (0 0 0) to (27.2 5.44 5.44) with tilt (0 0 0)
  triclinic box = (0 0 0) to (27.2 5.44 5.44) with tilt (0 0 0)
  triclinic box = (0 0 0) to (27.2 5.44 5.44) with tilt (0 0 0)
  triclinic box = (0 0 0) to (27.2 5.44 5.44) with tilt (0 0 0)
  triclinic box = (0 0 0) to (27.2 5.44 5.44) with tilt (0 0 0)
  triclinic box = (0 0 0) to (27.2 5.44 5.44) with tilt (0 0 0)
echo none
run 0
WARNING: No fixes with time integration, atoms won't move (src/verlet.cpp:60)
Per MPI rank memory allocation (min/avg/max) = 3.608 | 3.608 | 3.608 Mbytes
    PotEng          Pxx           E_mol          E_coul    
-6527.0805      10325.98       0              0            
Loop time of 6.33e-07 on 1 procs for 0 steps with 40 atoms

158.0% CPU use with 1 MPI tasks x 1 OpenMP threads

MPI task timing breakdown:
Section |  min time  |  avg time  |  max time  |%varavg| %total
---------------------------------------------------------------
Pair    | 0          | 0          | 0          |   0.0 |  0.00
Neigh   | 0          | 0          | 0          |   0.0 |  0.00
Comm    | 0          | 0          | 0          |   0.0 |  0.00
Output  | 0          | 0          | 0          |   0.0 |  0.00
Modify  | 0          | 0          | 0          |   0.0 |  0.00
Other   |            | 6.33e-07   |            |       |100.00

Nlocal:             40 ave          40 max          40 min
Histogram: 1 0 0 0 0 0 0 0 0 0
Nghost:            840 ave         840 max         840 min
Histogram: 1 0 0 0 0 0 0 0 0 0
Neighs:           1960 ave        1960 max        1960 min
Histogram: 1 0 0 0 0 0 0 0 0 0
FullNghs:         3920 ave        3920 max        3920 min
Histogram: 1 0 0 0 0 0 0 0 0 0

Total # of neighbors = 3920
Ave neighs/atom = 98
Neighbor list builds = 0
Dangerous builds = 0
set atom * x 0.0 y 0.0 z 0.0
Setting atom values ...
  40 settings made for x
  40 settings made for y
  40 settings made for z
change_box all     x final 0 28.300000000000004 y final 0 5.44 z final 0 5.44      xy final 0.0 xz final 0.0 yz final 0.0 units box
Changing box ...
  triclinic box = (0 0 0) to (28.3 5.44 5.44) with tilt (0 0 0)
  triclinic box = (0 0 0) to (28.3 5.44 5.44) with tilt (0 0 0)
  triclinic box = (0 0 0) to (28.3 5.44 5.44) with tilt (0 0 0)
  triclinic box = (0 0 0) to (28.3 5.44 5.44) with tilt (0 0 0)
  triclinic box = (0 0 0) to (28.3 5.44 5.44) with tilt (0 0 0)
  triclinic box = (0 0 0) to (28.3 5.44 5.44) with tilt (0 0 0)
echo none
run 0
WARNING: No fixes with time integration, atoms won't move (src/verlet.cpp:60)
Per MPI rank memory allocation (min/avg/max) = 3.608 | 3.608 | 3.608 Mbytes
    PotEng          Pxx           E_mol          E_coul    
-6522.4889     -14000.308      0              0            
Loop time of 6.4e-07 on 1 procs for 0 steps with 40 atoms

156.2% CPU use with 1 MPI tasks x 1 OpenMP threads

MPI task timing breakdown:
Section |  min time  |  avg time  |  max time  |%varavg| %total
---------------------------------------------------------------
Pair    | 0          | 0          | 0          |   0.0 |  0.00
Neigh   | 0          | 0          | 0          |   0.0 |  0.00
Comm    | 0          | 0          | 0          |   0.0 |  0.00
Output  | 0          | 0          | 0          |   0.0 |  0.00
Modify  | 0          | 0          | 0          |   0.0 |  0.00
Other   |            | 6.4e-07    |            |       |100.00

Nlocal:             40 ave          40 max          40 min
Histogram: 1 0 0 0 0 0 0 0 0 0
Nghost:            840 ave         840 max         840 min
Histogram: 1 0 0 0 0 0 0 0 0 0
Neighs:           1908 ave        1908 max        1908 min
Histogram: 1 0 0 0 0 0 0 0 0 0
FullNghs:         3816 ave        3816 max        3816 min
Histogram: 1 0 0 0 0 0 0 0 0 0

Total # of neighbors = 3816
Ave neighs/atom = 95.4
Neighbor list builds = 0
Dangerous builds = 0
set atom * x 0.0 y 0.0 z 0.0
Setting atom values ...
  40 settings made for x
  40 settings made for y
  40 settings made for z
change_box all     x final 0 27.200000000000003 y final 0 5.44 z final 0 5.44      xy final 0.0 xz final 0.0 yz final 0.0 units box
Changing box ...
  triclinic box = (0 0 0) to (27.2 5.44 5.44) with tilt (0 0 0)
  triclinic box = (0 0 0) to (27.2 5.44 5.44) with tilt (0 0 0)
  triclinic box = (0 0 0) to (27.2 5.44 5.44) with tilt (0 0 0)
  triclinic box = (0 0 0) to (27.2 5.44 5.44) with tilt (0 0 0)
  triclinic box = (0 0 0) to (27.2 5.44 5.44) with tilt (0 0 0)
  triclinic box = (0 0 0) to (27.2 5.44 5.44) with tilt (0 0 0)
echo none
run 0
WARNING: No fixes with time integration, atoms won't move (src/verlet.cpp:60)
Per MPI rank memory allocation (min/avg/max) = 3.608 | 3.608 | 3.608 Mbytes
    PotEng          Pxx           E_mol          E_coul    
-6527.0805      10325.98       0              0            
Loop time of 6.66e-07 on 1 procs for 0 steps with 40 atoms

150.2% CPU use with 1 MPI tasks x 1 OpenMP threads

MPI task timing breakdown:
Section |  min time  |  avg time  |  max time  |%varavg| %total
---------------------------------------------------------------
Pair    | 0          | 0          | 0          |   0.0 |  0.00
Neigh   | 0          | 0          | 0          |   0.0 |  0.00
Comm    | 0          | 0          | 0          |   0.0 |  0.00
Output  | 0          | 0          | 0          |   0.0 |  0.00
Modify  | 0          | 0          | 0          |   0.0 |  0.00
Other   |            | 6.66e-07   |            |       |100.00

Nlocal:             40 ave          40 max          40 min
Histogram: 1 0 0 0 0 0 0 0 0 0
Nghost:            840 ave         840 max         840 min
Histogram: 1 0 0 0 0 0 0 0 0 0
Neighs:           1960 ave        1960 max        1960 min
Histogram: 1 0 0 0 0 0 0 0 0 0
FullNghs:         3920 ave        3920 max        3920 min
Histogram: 1 0 0 0 0 0 0 0 0 0

Total # of neighbors = 3920
Ave neighs/atom = 98
Neighbor list builds = 0
Dangerous builds = 0
set atom * x 0.0 y 0.0 z 0.0
Setting atom values ...
  40 settings made for x
  40 settings made for y
  40 settings made for z
change_box all     x final 0 28.400000000000002 y final 0 5.44 z final 0 5.44      xy final 0.0 xz final 0.0 yz final 0.0 units box
Changing box ...
  triclinic box = (0 0 0) to (28.4 5.44 5.44) with tilt (0 0 0)
  triclinic box = (0 0 0) to (28.4 5.44 5.44) with tilt (0 0 0)
  triclinic box = (0 0 0) to (28.4 5.44 5.44) with tilt (0 0 0)
  triclinic box = (0 0 0) to (28.4 5.44 5.44) with tilt (0 0 0)
  triclinic box = (0 0 0) to (28.4 5.44 5.44) with tilt (0 0 0)
  triclinic box = (0 0 0) to (28.4 5.44 5.44) with tilt (0 0 0)
echo none
run 0
WARNING: No fixes with time integration, atoms won't move (src/verlet.cpp:60)
Per MPI rank memory allocation (min/avg/max) = 3.608 | 3.608 | 3.608 Mbytes
    PotEng          Pxx           E_mol          E_coul    
-6522.0917     -12376.7        0              0            
Loop time of 6.52e-07 on 1 procs for 0 steps with 40 atoms

153.4% CPU use with 1 MPI tasks x 1 OpenMP threads

MPI task timing breakdown:
Section |  min time  |  avg time  |  max time  |%varavg| %total
---------------------------------------------------------------
Pair    | 0          | 0          | 0          |   0.0 |  0.00
Neigh   | 0          | 0          | 0          |   0.0 |  0.00
Comm    | 0          | 0          | 0          |   0.0 |  0.00
Output  | 0          | 0          | 0          |   0.0 |  0.00
Modify  | 0          | 0          | 0          |   0.0 |  0.00
Other   |            | 6.52e-07   |            |       |100.00

Nlocal:             40 ave          40 max          40 min
Histogram: 1 0 0 0 0 0 0 0 0 0
Nghost:            808 ave         808 max         808 min
Histogram: 1 0 0 0 0 0 0 0 0 0
Neighs:           1908 ave        1908 max        1908 min
Histogram: 1 0 0 0 0 0 0 0 0 0
FullNghs:         3816 ave        3816 max        3816 min
Histogram: 1 0 0 0 0 0 0 0 0 0

Total # of neighbors = 3816
Ave neighs/atom = 95.4
Neighbor list builds = 0
Dangerous builds = 0
set atom * x 0.0 y 0.0 z 0.0
Setting atom values ...
  40 settings made for x
  40 settings made for y
  40 settings made for z
change_box all     x final 0 27.200000000000003 y final 0 5.44 z final 0 5.44      xy final 0.0 xz final 0.0 yz final 0.0 units box
Changing box ...
  triclinic box = (0 0 0) to (27.2 5.44 5.44) with tilt (0 0 0)
  triclinic box = (0 0 0) to (27.2 5.44 5.44) with tilt (0 0 0)
  triclinic box = (0 0 0) to (27.2 5.44 5.44) with tilt (0 0 0)
  triclinic box = (0 0 0) to (27.2 5.44 5.44) with tilt (0 0 0)
  triclinic box = (0 0 0) to (27.2 5.44 5.44) with tilt (0 0 0)
  triclinic box = (0 0 0) to (27.2 5.44 5.44) with tilt (0 0 0)
echo none
run 0
WARNING: No fixes with time integration, atoms won't move (src/verlet.cpp:60)
Per MPI rank memory allocation (min/avg/max) = 3.608 | 3.608 | 3.608 Mbytes
    PotEng          Pxx           E_mol          E_coul    
-6527.0805      10325.98       0              0            
Loop time of 6.38e-07 on 1 procs for 0 steps with 40 atoms

156.7% CPU use with 1 MPI tasks x 1 OpenMP threads

MPI task timing breakdown:
Section |  min time  |  avg time  |  max time  |%varavg| %total
---------------------------------------------------------------
Pair    | 0          | 0          | 0          |   0.0 |  0.00
Neigh   | 0          | 0          | 0          |   0.0 |  0.00
Comm    | 0          | 0          | 0          |   0.0 |  0.00
Output  | 0          | 0          | 0          |   0.0 |  0.00
Modify  | 0          | 0          | 0          |   0.0 |  0.00
Other   |            | 6.38e-07   |            |       |100.00

Nlocal:             40 ave          40 max          40 min
Histogram: 1 0 0 0 0 0 0 0 0 0
Nghost:            840 ave         840 max         840 min
Histogram: 1 0 0 0 0 0 0 0 0 0
Neighs:           1960 ave        1960 max        1960 min
Histogram: 1 0 0 0 0 0 0 0 0 0
FullNghs:         3920 ave        3920 max        3920 min
Histogram: 1 0 0 0 0 0 0 0 0 0

Total # of neighbors = 3920
Ave neighs/atom = 98
Neighbor list builds = 0
Dangerous builds = 0
set atom * x 0.0 y 0.0 z 0.0
Setting atom values ...
  40 settings made for x
  40 settings made for y
  40 settings made for z
change_box all     x final 0 28.500000000000004 y final 0 5.44 z final 0 5.44      xy final 0.0 xz final 0.0 yz final 0.0 units box
Changing box ...
  triclinic box = (0 0 0) to (28.5 5.44 5.44) with tilt (0 0 0)
  triclinic box = (0 0 0) to (28.5 5.44 5.44) with tilt (0 0 0)
  triclinic box = (0 0 0) to (28.5 5.44 5.44) with tilt (0 0 0)
  triclinic box = (0 0 0) to (28.5 5.44 5.44) with tilt (0 0 0)
  triclinic box = (0 0 0) to (28.5 5.44 5.44) with tilt (0 0 0)
  triclinic box = (0 0 0) to (28.5 5.44 5.44) with tilt (0 0 0)
echo none
run 0
WARNING: No fixes with time integration, atoms won't move (src/verlet.cpp:60)
Per MPI rank memory allocation (min/avg/max) = 3.608 | 3.608 | 3.608 Mbytes
    PotEng          Pxx           E_mol          E_coul    
-6521.7374     -10757.224      0              0            
Loop time of 6.39e-07 on 1 procs for 0 steps with 40 atoms

156.5% CPU use with 1 MPI tasks x 1 OpenMP threads

MPI task timing breakdown:
Section |  min time  |  avg time  |  max time  |%varavg| %total
---------------------------------------------------------------
Pair    | 0          | 0          | 0          |   0.0 |  0.00
Neigh   | 0          | 0          | 0          |   0.0 |  0.00
Comm    | 0          | 0          | 0          |   0.0 |  0.00
Output  | 0          | 0          | 0          |   0.0 |  0.00
Modify  | 0          | 0          | 0          |   0.0 |  0.00
Other   |            | 6.39e-07   |            |       |100.00

Nlocal:             40 ave          40 max          40 min
Histogram: 1 0 0 0 0 0 0 0 0 0
Nghost:            808 ave         808 max         808 min
Histogram: 1 0 0 0 0 0 0 0 0 0
Neighs:           1908 ave        1908 max        1908 min
Histogram: 1 0 0 0 0 0 0 0 0 0
FullNghs:         3816 ave        3816 max        3816 min
Histogram: 1 0 0 0 0 0 0 0 0 0

Total # of neighbors = 3816
Ave neighs/atom = 95.4
Neighbor list builds = 0
Dangerous builds = 0
set atom * x 0.0 y 0.0 z 0.0
Setting atom values ...
  40 settings made for x
  40 settings made for y
  40 settings made for z
change_box all     x final 0 27.200000000000003 y final 0 5.44 z final 0 5.44      xy final 0.0 xz final 0.0 yz final 0.0 units box
Changing box ...
  triclinic box = (0 0 0) to (27.2 5.44 5.44) with tilt (0 0 0)
  triclinic box = (0 0 0) to (27.2 5.44 5.44) with tilt (0 0 0)
  triclinic box = (0 0 0) to (27.2 5.44 5.44) with tilt (0 0 0)
  triclinic box = (0 0 0) to (27.2 5.44 5.44) with tilt (0 0 0)
  triclinic box = (0 0 0) to (27.2 5.44 5.44) with tilt (0 0 0)
  triclinic box = (0 0 0) to (27.2 5.44 5.44) with tilt (0 0 0)
echo none
run 0
WARNING: No fixes with time integration, atoms won't move (src/verlet.cpp:60)
Per MPI rank memory allocation (min/avg/max) = 3.608 | 3.608 | 3.608 Mbytes
    PotEng          Pxx           E_mol          E_coul    
-6527.0805      10325.98       0              0            
Loop time of 6.31e-07 on 1 procs for 0 steps with 40 atoms

158.5% CPU use with 1 MPI tasks x 1 OpenMP threads

MPI task timing breakdown:
Section |  min time  |  avg time  |  max time  |%varavg| %total
---------------------------------------------------------------
Pair    | 0          | 0          | 0          |   0.0 |  0.00
Neigh   | 0          | 0          | 0          |   0.0 |  0.00
Comm    | 0          | 0          | 0          |   0.0 |  0.00
Output  | 0          | 0          | 0          |   0.0 |  0.00
Modify  | 0          | 0          | 0          |   0.0 |  0.00
Other   |            | 6.31e-07   |            |       |100.00

Nlocal:             40 ave          40 max          40 min
Histogram: 1 0 0 0 0 0 0 0 0 0
Nghost:            840 ave         840 max         840 min
Histogram: 1 0 0 0 0 0 0 0 0 0
Neighs:           1960 ave        1960 max        1960 min
Histogram: 1 0 0 0 0 0 0 0 0 0
FullNghs:         3920 ave        3920 max        3920 min
Histogram: 1 0 0 0 0 0 0 0 0 0

Total # of neighbors = 3920
Ave neighs/atom = 98
Neighbor list builds = 0
Dangerous builds = 0
set atom * x 0.0 y 0.0 z 0.0
Setting atom values ...
  40 settings made for x
  40 settings made for y
  40 settings made for z
change_box all     x final 0 28.6 y final 0 5.44 z final 0 5.44      xy final 0.0 xz final 0.0 yz final 0.0 units box
Changing box ...
  triclinic box = (0 0 0) to (28.6 5.44 5.44) with tilt (0 0 0)
  triclinic box = (0 0 0) to (28.6 5.44 5.44) with tilt (0 0 0)
  triclinic box = (0 0 0) to (28.6 5.44 5.44) with tilt (0 0 0)
  triclinic box = (0 0 0) to (28.6 5.44 5.44) with tilt (0 0 0)
  triclinic box = (0 0 0) to (28.6 5.44 5.44) with tilt (0 0 0)
  triclinic box = (0 0 0) to (28.6 5.44 5.44) with tilt (0 0 0)
echo none
run 0
WARNING: No fixes with time integration, atoms won't move (src/verlet.cpp:60)
Per MPI rank memory allocation (min/avg/max) = 3.608 | 3.608 | 3.608 Mbytes
    PotEng          Pxx           E_mol          E_coul    
-6521.4193     -9226.4811      0              0            
Loop time of 6.3e-07 on 1 procs for 0 steps with 40 atoms

158.7% CPU use with 1 MPI tasks x 1 OpenMP threads

MPI task timing breakdown:
Section |  min time  |  avg time  |  max time  |%varavg| %total
---------------------------------------------------------------
Pair    | 0          | 0          | 0          |   0.0 |  0.00
Neigh   | 0          | 0          | 0          |   0.0 |  0.00
Comm    | 0          | 0          | 0          |   0.0 |  0.00
Output  | 0          | 0          | 0          |   0.0 |  0.00
Modify  | 0          | 0          | 0          |   0.0 |  0.00
Other   |            | 6.3e-07    |            |       |100.00

Nlocal:             40 ave          40 max          40 min
Histogram: 1 0 0 0 0 0 0 0 0 0
Nghost:            808 ave         808 max         808 min
Histogram: 1 0 0 0 0 0 0 0 0 0
Neighs:           1908 ave        1908 max        1908 min
Histogram: 1 0 0 0 0 0 0 0 0 0
FullNghs:         3816 ave        3816 max        3816 min
Histogram: 1 0 0 0 0 0 0 0 0 0

Total # of neighbors = 3816
Ave neighs/atom = 95.4
Neighbor list builds = 0
Dangerous builds = 0
set atom * x 0.0 y 0.0 z 0.0
Setting atom values ...
  40 settings made for x
  40 settings made for y
  40 settings made for z
change_box all     x final 0 27.200000000000003 y final 0 5.44 z final 0 5.44      xy final 0.0 xz final 0.0 yz final 0.0 units box
Changing box ...
  triclinic box = (0 0 0) to (27.2 5.44 5.44) with tilt (0 0 0)
  triclinic box = (0 0 0) to (27.2 5.44 5.44) with tilt (0 0 0)
  triclinic box = (0 0 0) to (27.2 5.44 5.44) with tilt (0 0 0)
  triclinic box = (0 0 0) to (27.2 5.44 5.44) with tilt (0 0 0)
  triclinic box = (0 0 0) to (27.2 5.44 5.44) with tilt (0 0 0)
  triclinic box = (0 0 0) to (27.2 5.44 5.44) with tilt (0 0 0)
echo none
run 0
WARNING: No fixes with time integration, atoms won't move (src/verlet.cpp:60)
Per MPI rank memory allocation (min/avg/max) = 3.608 | 3.608 | 3.608 Mbytes
    PotEng          Pxx           E_mol          E_coul    
-6527.0805      10325.98       0              0            
Loop time of 6.52e-07 on 1 procs for 0 steps with 40 atoms

153.4% CPU use with 1 MPI tasks x 1 OpenMP threads

MPI task timing breakdown:
Section |  min time  |  avg time  |  max time  |%varavg| %total
---------------------------------------------------------------
Pair    | 0          | 0          | 0          |   0.0 |  0.00
Neigh   | 0          | 0          | 0          |   0.0 |  0.00
Comm    | 0          | 0          | 0          |   0.0 |  0.00
Output  | 0          | 0          | 0          |   0.0 |  0.00
Modify  | 0          | 0          | 0          |   0.0 |  0.00
Other   |            | 6.52e-07   |            |       |100.00

Nlocal:             40 ave          40 max          40 min
Histogram: 1 0 0 0 0 0 0 0 0 0
Nghost:            840 ave         840 max         840 min
Histogram: 1 0 0 0 0 0 0 0 0 0
Neighs:           1960 ave        1960 max        1960 min
Histogram: 1 0 0 0 0 0 0 0 0 0
FullNghs:         3920 ave        3920 max        3920 min
Histogram: 1 0 0 0 0 0 0 0 0 0

Total # of neighbors = 3920
Ave neighs/atom = 98
Neighbor list builds = 0
Dangerous builds = 0
set atom * x 0.0 y 0.0 z 0.0
Setting atom values ...
  40 settings made for x
  40 settings made for y
  40 settings made for z
change_box all     x final 0 28.700000000000003 y final 0 5.44 z final 0 5.44      xy final 0.0 xz final 0.0 yz final 0.0 units box
Changing box ...
  triclinic box = (0 0 0) to (28.7 5.44 5.44) with tilt (0 0 0)
  triclinic box = (0 0 0) to (28.7 5.44 5.44) with tilt (0 0 0)
  triclinic box = (0 0 0) to (28.7 5.44 5.44) with tilt (0 0 0)
  triclinic box = (0 0 0) to (28.7 5.44 5.44) with tilt (0 0 0)
  triclinic box = (0 0 0) to (28.7 5.44 5.44) with tilt (0 0 0)
  triclinic box = (0 0 0) to (28.7 5.44 5.44) with tilt (0 0 0)
echo none
run 0
WARNING: No fixes with time integration, atoms won't move (src/verlet.cpp:60)
Per MPI rank memory allocation (min/avg/max) = 3.608 | 3.608 | 3.608 Mbytes
    PotEng          Pxx           E_mol          E_coul    
-6521.1316     -7745.3557      0              0            
Loop time of 6.5e-07 on 1 procs for 0 steps with 40 atoms

153.8% CPU use with 1 MPI tasks x 1 OpenMP threads

MPI task timing breakdown:
Section |  min time  |  avg time  |  max time  |%varavg| %total
---------------------------------------------------------------
Pair    | 0          | 0          | 0          |   0.0 |  0.00
Neigh   | 0          | 0          | 0          |   0.0 |  0.00
Comm    | 0          | 0          | 0          |   0.0 |  0.00
Output  | 0          | 0          | 0          |   0.0 |  0.00
Modify  | 0          | 0          | 0          |   0.0 |  0.00
Other   |            | 6.5e-07    |            |       |100.00

Nlocal:             40 ave          40 max          40 min
Histogram: 1 0 0 0 0 0 0 0 0 0
Nghost:            808 ave         808 max         808 min
Histogram: 1 0 0 0 0 0 0 0 0 0
Neighs:           1896 ave        1896 max        1896 min
Histogram: 1 0 0 0 0 0 0 0 0 0
FullNghs:         3792 ave        3792 max        3792 min
Histogram: 1 0 0 0 0 0 0 0 0 0

Total # of neighbors = 3792
Ave neighs/atom = 94.8
Neighbor list builds = 0
Dangerous builds = 0
set atom * x 0.0 y 0.0 z 0.0
Setting atom values ...
  40 settings made for x
  40 settings made for y
  40 settings made for z
change_box all     x final 0 27.200000000000003 y final 0 5.44 z final 0 5.44      xy final 0.0 xz final 0.0 yz final 0.0 units box
Changing box ...
  triclinic box = (0 0 0) to (27.2 5.44 5.44) with tilt (0 0 0)
  triclinic box = (0 0 0) to (27.2 5.44 5.44) with tilt (0 0 0)
  triclinic box = (0 0 0) to (27.2 5.44 5.44) with tilt (0 0 0)
  triclinic box = (0 0 0) to (27.2 5.44 5.44) with tilt (0 0 0)
  triclinic box = (0 0 0) to (27.2 5.44 5.44) with tilt (0 0 0)
  triclinic box = (0 0 0) to (27.2 5.44 5.44) with tilt (0 0 0)
echo none
run 0
WARNING: No fixes with time integration, atoms won't move (src/verlet.cpp:60)
Per MPI rank memory allocation (min/avg/max) = 3.608 | 3.608 | 3.608 Mbytes
    PotEng          Pxx           E_mol          E_coul    
-6527.0805      10325.98       0              0            
Loop time of 6.69e-07 on 1 procs for 0 steps with 40 atoms

149.5% CPU use with 1 MPI tasks x 1 OpenMP threads

MPI task timing breakdown:
Section |  min time  |  avg time  |  max time  |%varavg| %total
---------------------------------------------------------------
Pair    | 0          | 0          | 0          |   0.0 |  0.00
Neigh   | 0          | 0          | 0          |   0.0 |  0.00
Comm    | 0          | 0          | 0          |   0.0 |  0.00
Output  | 0          | 0          | 0          |   0.0 |  0.00
Modify  | 0          | 0          | 0          |   0.0 |  0.00
Other   |            | 6.69e-07   |            |       |100.00

Nlocal:             40 ave          40 max          40 min
Histogram: 1 0 0 0 0 0 0 0 0 0
Nghost:            840 ave         840 max         840 min
Histogram: 1 0 0 0 0 0 0 0 0 0
Neighs:           1960 ave        1960 max        1960 min
Histogram: 1 0 0 0 0 0 0 0 0 0
FullNghs:         3920 ave        3920 max        3920 min
Histogram: 1 0 0 0 0 0 0 0 0 0

Total # of neighbors = 3920
Ave neighs/atom = 98
Neighbor list builds = 0
Dangerous builds = 0
set atom * x 0.0 y 0.0 z 0.0
Setting atom values ...
  40 settings made for x
  40 settings made for y
  40 settings made for z
change_box all     x final 0 28.800000000000004 y final 0 5.44 z final 0 5.44      xy final 0.0 xz final 0.0 yz final 0.0 units box
Changing box ...
  triclinic box = (0 0 0) to (28.8 5.44 5.44) with tilt (0 0 0)
  triclinic box = (0 0 0) to (28.8 5.44 5.44) with tilt (0 0 0)
  triclinic box = (0 0 0) to (28.8 5.44 5.44) with tilt (0 0 0)
  triclinic box = (0 0 0) to (28.8 5.44 5.44) with tilt (0 0 0)
  triclinic box = (0 0 0) to (28.8 5.44 5.44) with tilt (0 0 0)
  triclinic box = (0 0 0) to (28.8 5.44 5.44) with tilt (0 0 0)
echo none
run 0
WARNING: No fixes with time integration, atoms won't move (src/verlet.cpp:60)
Per MPI rank memory allocation (min/avg/max) = 3.608 | 3.608 | 3.608 Mbytes
    PotEng          Pxx           E_mol          E_coul    
-6520.8723     -6237.7234      0              0            
Loop time of 6.54e-07 on 1 procs for 0 steps with 40 atoms

305.8% CPU use with 1 MPI tasks x 1 OpenMP threads

MPI task timing breakdown:
Section |  min time  |  avg time  |  max time  |%varavg| %total
---------------------------------------------------------------
Pair    | 0          | 0          | 0          |   0.0 |  0.00
Neigh   | 0          | 0          | 0          |   0.0 |  0.00
Comm    | 0          | 0          | 0          |   0.0 |  0.00
Output  | 0          | 0          | 0          |   0.0 |  0.00
Modify  | 0          | 0          | 0          |   0.0 |  0.00
Other   |            | 6.54e-07   |            |       |100.00

Nlocal:             40 ave          40 max          40 min
Histogram: 1 0 0 0 0 0 0 0 0 0
Nghost:            808 ave         808 max         808 min
Histogram: 1 0 0 0 0 0 0 0 0 0
Neighs:           1864 ave        1864 max        1864 min
Histogram: 1 0 0 0 0 0 0 0 0 0
FullNghs:         3728 ave        3728 max        3728 min
Histogram: 1 0 0 0 0 0 0 0 0 0

Total # of neighbors = 3728
Ave neighs/atom = 93.2
Neighbor list builds = 0
Dangerous builds = 0
set atom * x 0.0 y 0.0 z 0.0
Setting atom values ...
  40 settings made for x
  40 settings made for y
  40 settings made for z
change_box all     x final 0 27.200000000000003 y final 0 5.44 z final 0 5.44      xy final 0.0 xz final 0.0 yz final 0.0 units box
Changing box ...
  triclinic box = (0 0 0) to (27.2 5.44 5.44) with tilt (0 0 0)
  triclinic box = (0 0 0) to (27.2 5.44 5.44) with tilt (0 0 0)
  triclinic box = (0 0 0) to (27.2 5.44 5.44) with tilt (0 0 0)
  triclinic box = (0 0 0) to (27.2 5.44 5.44) with tilt (0 0 0)
  triclinic box = (0 0 0) to (27.2 5.44 5.44) with tilt (0 0 0)
  triclinic box = (0 0 0) to (27.2 5.44 5.44) with tilt (0 0 0)
echo none
run 0
WARNING: No fixes with time integration, atoms won't move (src/verlet.cpp:60)
Per MPI rank memory allocation (min/avg/max) = 3.608 | 3.608 | 3.608 Mbytes
    PotEng          Pxx           E_mol          E_coul    
-6527.0805      10325.98       0              0            
Loop time of 6.32e-07 on 1 procs for 0 steps with 40 atoms

158.2% CPU use with 1 MPI tasks x 1 OpenMP threads

MPI task timing breakdown:
Section |  min time  |  avg time  |  max time  |%varavg| %total
---------------------------------------------------------------
Pair    | 0          | 0          | 0          |   0.0 |  0.00
Neigh   | 0          | 0          | 0          |   0.0 |  0.00
Comm    | 0          | 0          | 0          |   0.0 |  0.00
Output  | 0          | 0          | 0          |   0.0 |  0.00
Modify  | 0          | 0          | 0          |   0.0 |  0.00
Other   |            | 6.32e-07   |            |       |100.00

Nlocal:             40 ave          40 max          40 min
Histogram: 1 0 0 0 0 0 0 0 0 0
Nghost:            840 ave         840 max         840 min
Histogram: 1 0 0 0 0 0 0 0 0 0
Neighs:           1960 ave        1960 max        1960 min
Histogram: 1 0 0 0 0 0 0 0 0 0
FullNghs:         3920 ave        3920 max        3920 min
Histogram: 1 0 0 0 0 0 0 0 0 0

Total # of neighbors = 3920
Ave neighs/atom = 98
Neighbor list builds = 0
Dangerous builds = 0
set atom * x 0.0 y 0.0 z 0.0
Setting atom values ...
  40 settings made for x
  40 settings made for y
  40 settings made for z
change_box all     x final 0 28.900000000000002 y final 0 5.44 z final 0 5.44      xy final 0.0 xz final 0.0 yz final 0.0 units box
Changing box ...
  triclinic box = (0 0 0) to (28.9 5.44 5.44) with tilt (0 0 0)
  triclinic box = (0 0 0) to (28.9 5.44 5.44) with tilt (0 0 0)
  triclinic box = (0 0 0) to (28.9 5.44 5.44) with tilt (0 0 0)
  triclinic box = (0 0 0) to (28.9 5.44 5.44) with tilt (0 0 0)
  triclinic box = (0 0 0) to (28.9 5.44 5.44) with tilt (0 0 0)
  triclinic box = (0 0 0) to (28.9 5.44 5.44) with tilt (0 0 0)
echo none
run 0
WARNING: No fixes with time integration, atoms won't move (src/verlet.cpp:60)
Per MPI rank memory allocation (min/avg/max) = 3.608 | 3.608 | 3.608 Mbytes
    PotEng          Pxx           E_mol          E_coul    
-6520.6413     -4698.5191      0              0            
Loop time of 6.4e-07 on 1 procs for 0 steps with 40 atoms

312.5% CPU use with 1 MPI tasks x 1 OpenMP threads

MPI task timing breakdown:
Section |  min time  |  avg time  |  max time  |%varavg| %total
---------------------------------------------------------------
Pair    | 0          | 0          | 0          |   0.0 |  0.00
Neigh   | 0          | 0          | 0          |   0.0 |  0.00
Comm    | 0          | 0          | 0          |   0.0 |  0.00
Output  | 0          | 0          | 0          |   0.0 |  0.00
Modify  | 0          | 0          | 0          |   0.0 |  0.00
Other   |            | 6.4e-07    |            |       |100.00

Nlocal:             40 ave          40 max          40 min
Histogram: 1 0 0 0 0 0 0 0 0 0
Nghost:            808 ave         808 max         808 min
Histogram: 1 0 0 0 0 0 0 0 0 0
Neighs:           1864 ave        1864 max        1864 min
Histogram: 1 0 0 0 0 0 0 0 0 0
FullNghs:         3728 ave        3728 max        3728 min
Histogram: 1 0 0 0 0 0 0 0 0 0

Total # of neighbors = 3728
Ave neighs/atom = 93.2
Neighbor list builds = 0
Dangerous builds = 0
set atom * x 0.0 y 0.0 z 0.0
Setting atom values ...
  40 settings made for x
  40 settings made for y
  40 settings made for z
change_box all     x final 0 27.200000000000003 y final 0 5.44 z final 0 5.44      xy final 0.0 xz final 0.0 yz final 0.0 units box
Changing box ...
  triclinic box = (0 0 0) to (27.2 5.44 5.44) with tilt (0 0 0)
  triclinic box = (0 0 0) to (27.2 5.44 5.44) with tilt (0 0 0)
  triclinic box = (0 0 0) to (27.2 5.44 5.44) with tilt (0 0 0)
  triclinic box = (0 0 0) to (27.2 5.44 5.44) with tilt (0 0 0)
  triclinic box = (0 0 0) to (27.2 5.44 5.44) with tilt (0 0 0)
  triclinic box = (0 0 0) to (27.2 5.44 5.44) with tilt (0 0 0)
echo none
run 0
WARNING: No fixes with time integration, atoms won't move (src/verlet.cpp:60)
Per MPI rank memory allocation (min/avg/max) = 3.608 | 3.608 | 3.608 Mbytes
    PotEng          Pxx           E_mol          E_coul    
-6527.0805      10325.98       0              0            
Loop time of 6.13e-07 on 1 procs for 0 steps with 40 atoms

326.3% CPU use with 1 MPI tasks x 1 OpenMP threads

MPI task timing breakdown:
Section |  min time  |  avg time  |  max time  |%varavg| %total
---------------------------------------------------------------
Pair    | 0          | 0          | 0          |   0.0 |  0.00
Neigh   | 0          | 0          | 0          |   0.0 |  0.00
Comm    | 0          | 0          | 0          |   0.0 |  0.00
Output  | 0          | 0          | 0          |   0.0 |  0.00
Modify  | 0          | 0          | 0          |   0.0 |  0.00
Other   |            | 6.13e-07   |            |       |100.00

Nlocal:             40 ave          40 max          40 min
Histogram: 1 0 0 0 0 0 0 0 0 0
Nghost:            840 ave         840 max         840 min
Histogram: 1 0 0 0 0 0 0 0 0 0
Neighs:           1960 ave        1960 max        1960 min
Histogram: 1 0 0 0 0 0 0 0 0 0
FullNghs:         3920 ave        3920 max        3920 min
Histogram: 1 0 0 0 0 0 0 0 0 0

Total # of neighbors = 3920
Ave neighs/atom = 98
Neighbor list builds = 0
Dangerous builds = 0
set atom * x 0.0 y 0.0 z 0.0
Setting atom values ...
  40 settings made for x
  40 settings made for y
  40 settings made for z
change_box all     x final 0 29.000000000000004 y final 0 5.44 z final 0 5.44      xy final 0.0 xz final 0.0 yz final 0.0 units box
Changing box ...
  triclinic box = (0 0 0) to (29 5.44 5.44) with tilt (0 0 0)
  triclinic box = (0 0 0) to (29 5.44 5.44) with tilt (0 0 0)
  triclinic box = (0 0 0) to (29 5.44 5.44) with tilt (0 0 0)
  triclinic box = (0 0 0) to (29 5.44 5.44) with tilt (0 0 0)
  triclinic box = (0 0 0) to (29 5.44 5.44) with tilt (0 0 0)
  triclinic box = (0 0 0) to (29 5.44 5.44) with tilt (0 0 0)
echo none
run 0
WARNING: No fixes with time integration, atoms won't move (src/verlet.cpp:60)
Per MPI rank memory allocation (min/avg/max) = 3.608 | 3.608 | 3.608 Mbytes
    PotEng          Pxx           E_mol          E_coul    
-6520.4404     -2879.2034      0              0            
Loop time of 6.18e-07 on 1 procs for 0 steps with 40 atoms

161.8% CPU use with 1 MPI tasks x 1 OpenMP threads

MPI task timing breakdown:
Section |  min time  |  avg time  |  max time  |%varavg| %total
---------------------------------------------------------------
Pair    | 0          | 0          | 0          |   0.0 |  0.00
Neigh   | 0          | 0          | 0          |   0.0 |  0.00
Comm    | 0          | 0          | 0          |   0.0 |  0.00
Output  | 0          | 0          | 0          |   0.0 |  0.00
Modify  | 0          | 0          | 0          |   0.0 |  0.00
Other   |            | 6.18e-07   |            |       |100.00

Nlocal:             40 ave          40 max          40 min
Histogram: 1 0 0 0 0 0 0 0 0 0
Nghost:            808 ave         808 max         808 min
Histogram: 1 0 0 0 0 0 0 0 0 0
Neighs:           1864 ave        1864 max        1864 min
Histogram: 1 0 0 0 0 0 0 0 0 0
FullNghs:         3728 ave        3728 max        3728 min
Histogram: 1 0 0 0 0 0 0 0 0 0

Total # of neighbors = 3728
Ave neighs/atom = 93.2
Neighbor list builds = 0
Dangerous builds = 0
set atom * x 0.0 y 0.0 z 0.0
Setting atom values ...
  40 settings made for x
  40 settings made for y
  40 settings made for z
[...]
  triclinic box = (0 0 0) to (27.2 5.44 5.44) with tilt (0 0 0)
echo none
run 0
WARNING: No fixes with time integration, atoms won't move (src/verlet.cpp:60)
Per MPI rank memory allocation (min/avg/max) = 3.608 | 3.608 | 3.608 Mbytes
    PotEng          Pxx           E_mol          E_coul    
-6527.0805      10325.98       0              0            
Loop time of 6.5e-07 on 1 procs for 0 steps with 40 atoms

153.8% CPU use with 1 MPI tasks x 1 OpenMP threads

MPI task timing breakdown:
Section |  min time  |  avg time  |  max time  |%varavg| %total
---------------------------------------------------------------
Pair    | 0          | 0          | 0          |   0.0 |  0.00
Neigh   | 0          | 0          | 0          |   0.0 |  0.00
Comm    | 0          | 0          | 0          |   0.0 |  0.00
Output  | 0          | 0          | 0          |   0.0 |  0.00
Modify  | 0          | 0          | 0          |   0.0 |  0.00
Other   |            | 6.5e-07    |            |       |100.00

Nlocal:             40 ave          40 max          40 min
Histogram: 1 0 0 0 0 0 0 0 0 0
Nghost:            840 ave         840 max         840 min
Histogram: 1 0 0 0 0 0 0 0 0 0
Neighs:           1960 ave        1960 max        1960 min
Histogram: 1 0 0 0 0 0 0 0 0 0
FullNghs:         3920 ave        3920 max        3920 min
Histogram: 1 0 0 0 0 0 0 0 0 0

Total # of neighbors = 3920
Ave neighs/atom = 98
Neighbor list builds = 0
Dangerous builds = 0
set atom * x 0.0 y 0.0 z 0.0
Setting atom values ...
  40 settings made for x
  40 settings made for y
  40 settings made for z
change_box all     x final 0 30.300000000000004 y final 0 5.44 z final 0 5.44      xy final 0.0 xz final 0.0 yz final 0.0 units box
Changing box ...
  triclinic box = (0 0 0) to (30.3 5.44 5.44) with tilt (0 0 0)
  triclinic box = (0 0 0) to (30.3 5.44 5.44) with tilt (0 0 0)
  triclinic box = (0 0 0) to (30.3 5.44 5.44) with tilt (0 0 0)
  triclinic box = (0 0 0) to (30.3 5.44 5.44) with tilt (0 0 0)
  triclinic box = (0 0 0) to (30.3 5.44 5.44) with tilt (0 0 0)
  triclinic box = (0 0 0) to (30.3 5.44 5.44) with tilt (0 0 0)
echo none
run 0
WARNING: No fixes with time integration, atoms won't move (src/verlet.cpp:60)
Per MPI rank memory allocation (min/avg/max) = 3.608 | 3.608 | 3.608 Mbytes
    PotEng          Pxx           E_mol          E_coul    
-6519.3757      7396.1347      0              0            
Loop time of 1.3e-06 on 1 procs for 0 steps with 40 atoms

230.8% CPU use with 1 MPI tasks x 1 OpenMP threads

MPI task timing breakdown:
Section |  min time  |  avg time  |  max time  |%varavg| %total
---------------------------------------------------------------
Pair    | 0          | 0          | 0          |   0.0 |  0.00
Neigh   | 0          | 0          | 0          |   0.0 |  0.00
Comm    | 0          | 0          | 0          |   0.0 |  0.00
Output  | 0          | 0          | 0          |   0.0 |  0.00
Modify  | 0          | 0          | 0          |   0.0 |  0.00
Other   |            | 1.3e-06    |            |       |100.00

Nlocal:             40 ave          40 max          40 min
Histogram: 1 0 0 0 0 0 0 0 0 0
Nghost:            783 ave         783 max         783 min
Histogram: 1 0 0 0 0 0 0 0 0 0
Neighs:           1792 ave        1792 max        1792 min
Histogram: 1 0 0 0 0 0 0 0 0 0
FullNghs:         3584 ave        3584 max        3584 min
Histogram: 1 0 0 0 0 0 0 0 0 0

Total # of neighbors = 3584
Ave neighs/atom = 89.6
Neighbor list builds = 0
Dangerous builds = 0
set atom * x 0.0 y 0.0 z 0.0
Setting atom values ...
  40 settings made for x
  40 settings made for y
  40 settings made for z
change_box all     x final 0 27.200000000000003 y final 0 5.44 z final 0 5.44      xy final 0.0 xz final 0.0 yz final 0.0 units box
Changing box ...
  triclinic box = (0 0 0) to (27.2 5.44 5.44) with tilt (0 0 0)
  triclinic box = (0 0 0) to (27.2 5.44 5.44) with tilt (0 0 0)
  triclinic box = (0 0 0) to (27.2 5.44 5.44) with tilt (0 0 0)
  triclinic box = (0 0 0) to (27.2 5.44 5.44) with tilt (0 0 0)
  triclinic box = (0 0 0) to (27.2 5.44 5.44) with tilt (0 0 0)
  triclinic box = (0 0 0) to (27.2 5.44 5.44) with tilt (0 0 0)
echo none
run 0
WARNING: No fixes with time integration, atoms won't move (src/verlet.cpp:60)
Per MPI rank memory allocation (min/avg/max) = 3.608 | 3.608 | 3.608 Mbytes
    PotEng          Pxx           E_mol          E_coul    
-6527.0805      10325.98       0              0            
Loop time of 6.55e-07 on 1 procs for 0 steps with 40 atoms

305.3% CPU use with 1 MPI tasks x 1 OpenMP threads

MPI task timing breakdown:
Section |  min time  |  avg time  |  max time  |%varavg| %total
---------------------------------------------------------------
Pair    | 0          | 0          | 0          |   0.0 |  0.00
Neigh   | 0          | 0          | 0          |   0.0 |  0.00
Comm    | 0          | 0          | 0          |   0.0 |  0.00
Output  | 0          | 0          | 0          |   0.0 |  0.00
Modify  | 0          | 0          | 0          |   0.0 |  0.00
Other   |            | 6.55e-07   |            |       |100.00

Nlocal:             40 ave          40 max          40 min
Histogram: 1 0 0 0 0 0 0 0 0 0
Nghost:            840 ave         840 max         840 min
Histogram: 1 0 0 0 0 0 0 0 0 0
Neighs:           1960 ave        1960 max        1960 min
Histogram: 1 0 0 0 0 0 0 0 0 0
FullNghs:         3920 ave        3920 max        3920 min
Histogram: 1 0 0 0 0 0 0 0 0 0

Total # of neighbors = 3920
Ave neighs/atom = 98
Neighbor list builds = 0
Dangerous builds = 0
set atom * x 0.0 y 0.0 z 0.0
Setting atom values ...
  40 settings made for x
  40 settings made for y
  40 settings made for z
change_box all     x final 0 30.400000000000002 y final 0 5.44 z final 0 5.44      xy final 0.0 xz final 0.0 yz final 0.0 units box
Changing box ...
  triclinic box = (0 0 0) to (30.4 5.44 5.44) with tilt (0 0 0)
  triclinic box = (0 0 0) to (30.4 5.44 5.44) with tilt (0 0 0)
  triclinic box = (0 0 0) to (30.4 5.44 5.44) with tilt (0 0 0)
  triclinic box = (0 0 0) to (30.4 5.44 5.44) with tilt (0 0 0)
  triclinic box = (0 0 0) to (30.4 5.44 5.44) with tilt (0 0 0)
  triclinic box = (0 0 0) to (30.4 5.44 5.44) with tilt (0 0 0)
echo none
run 0
WARNING: No fixes with time integration, atoms won't move (src/verlet.cpp:60)
Per MPI rank memory allocation (min/avg/max) = 3.608 | 3.608 | 3.608 Mbytes
    PotEng          Pxx           E_mol          E_coul    
-6519.3439      7421.427       0              0            
Loop time of 6.75e-07 on 1 procs for 0 steps with 40 atoms

296.3% CPU use with 1 MPI tasks x 1 OpenMP threads

MPI task timing breakdown:
Section |  min time  |  avg time  |  max time  |%varavg| %total
---------------------------------------------------------------
Pair    | 0          | 0          | 0          |   0.0 |  0.00
Neigh   | 0          | 0          | 0          |   0.0 |  0.00
Comm    | 0          | 0          | 0          |   0.0 |  0.00
Output  | 0          | 0          | 0          |   0.0 |  0.00
Modify  | 0          | 0          | 0          |   0.0 |  0.00
Other   |            | 6.75e-07   |            |       |100.00

Nlocal:             40 ave          40 max          40 min
Histogram: 1 0 0 0 0 0 0 0 0 0
Nghost:            783 ave         783 max         783 min
Histogram: 1 0 0 0 0 0 0 0 0 0
Neighs:           1792 ave        1792 max        1792 min
Histogram: 1 0 0 0 0 0 0 0 0 0
FullNghs:         3584 ave        3584 max        3584 min
Histogram: 1 0 0 0 0 0 0 0 0 0

Total # of neighbors = 3584
Ave neighs/atom = 89.6
Neighbor list builds = 0
Dangerous builds = 0
set atom * x 0.0 y 0.0 z 0.0
Setting atom values ...
  40 settings made for x
  40 settings made for y
  40 settings made for z
change_box all     x final 0 27.200000000000003 y final 0 5.44 z final 0 5.44      xy final 0.0 xz final 0.0 yz final 0.0 units box
Changing box ...
  triclinic box = (0 0 0) to (27.2 5.44 5.44) with tilt (0 0 0)
  triclinic box = (0 0 0) to (27.2 5.44 5.44) with tilt (0 0 0)
  triclinic box = (0 0 0) to (27.2 5.44 5.44) with tilt (0 0 0)
  triclinic box = (0 0 0) to (27.2 5.44 5.44) with tilt (0 0 0)
  triclinic box = (0 0 0) to (27.2 5.44 5.44) with tilt (0 0 0)
  triclinic box = (0 0 0) to (27.2 5.44 5.44) with tilt (0 0 0)
echo none
run 0
WARNING: No fixes with time integration, atoms won't move (src/verlet.cpp:60)
Per MPI rank memory allocation (min/avg/max) = 3.608 | 3.608 | 3.608 Mbytes
    PotEng          Pxx           E_mol          E_coul    
-6527.0805      10325.98       0              0            
Loop time of 6.64e-07 on 1 procs for 0 steps with 40 atoms

150.6% CPU use with 1 MPI tasks x 1 OpenMP threads

MPI task timing breakdown:
Section |  min time  |  avg time  |  max time  |%varavg| %total
---------------------------------------------------------------
Pair    | 0          | 0          | 0          |   0.0 |  0.00
Neigh   | 0          | 0          | 0          |   0.0 |  0.00
Comm    | 0          | 0          | 0          |   0.0 |  0.00
Output  | 0          | 0          | 0          |   0.0 |  0.00
Modify  | 0          | 0          | 0          |   0.0 |  0.00
Other   |            | 6.64e-07   |            |       |100.00

Nlocal:             40 ave          40 max          40 min
Histogram: 1 0 0 0 0 0 0 0 0 0
Nghost:            840 ave         840 max         840 min
Histogram: 1 0 0 0 0 0 0 0 0 0
Neighs:           1960 ave        1960 max        1960 min
Histogram: 1 0 0 0 0 0 0 0 0 0
FullNghs:         3920 ave        3920 max        3920 min
Histogram: 1 0 0 0 0 0 0 0 0 0

Total # of neighbors = 3920
Ave neighs/atom = 98
Neighbor list builds = 0
Dangerous builds = 0
set atom * x 0.0 y 0.0 z 0.0
Setting atom values ...
  40 settings made for x
  40 settings made for y
  40 settings made for z
change_box all     x final 0 30.500000000000004 y final 0 5.44 z final 0 5.44      xy final 0.0 xz final 0.0 yz final 0.0 units box
Changing box ...
  triclinic box = (0 0 0) to (30.5 5.44 5.44) with tilt (0 0 0)
  triclinic box = (0 0 0) to (30.5 5.44 5.44) with tilt (0 0 0)
  triclinic box = (0 0 0) to (30.5 5.44 5.44) with tilt (0 0 0)
  triclinic box = (0 0 0) to (30.5 5.44 5.44) with tilt (0 0 0)
  triclinic box = (0 0 0) to (30.5 5.44 5.44) with tilt (0 0 0)
  triclinic box = (0 0 0) to (30.5 5.44 5.44) with tilt (0 0 0)
echo none
run 0
WARNING: No fixes with time integration, atoms won't move (src/verlet.cpp:60)
Per MPI rank memory allocation (min/avg/max) = 3.608 | 3.608 | 3.608 Mbytes
    PotEng          Pxx           E_mol          E_coul    
-6519.3152      7462.5571      0              0            
Loop time of 6.31e-07 on 1 procs for 0 steps with 40 atoms

317.0% CPU use with 1 MPI tasks x 1 OpenMP threads

MPI task timing breakdown:
Section |  min time  |  avg time  |  max time  |%varavg| %total
---------------------------------------------------------------
Pair    | 0          | 0          | 0          |   0.0 |  0.00
Neigh   | 0          | 0          | 0          |   0.0 |  0.00
Comm    | 0          | 0          | 0          |   0.0 |  0.00
Output  | 0          | 0          | 0          |   0.0 |  0.00
Modify  | 0          | 0          | 0          |   0.0 |  0.00
Other   |            | 6.31e-07   |            |       |100.00

Nlocal:             40 ave          40 max          40 min
Histogram: 1 0 0 0 0 0 0 0 0 0
Nghost:            783 ave         783 max         783 min
Histogram: 1 0 0 0 0 0 0 0 0 0
Neighs:           1792 ave        1792 max        1792 min
Histogram: 1 0 0 0 0 0 0 0 0 0
FullNghs:         3584 ave        3584 max        3584 min
Histogram: 1 0 0 0 0 0 0 0 0 0

Total # of neighbors = 3584
Ave neighs/atom = 89.6
Neighbor list builds = 0
Dangerous builds = 0
set atom * x 0.0 y 0.0 z 0.0
Setting atom values ...
  40 settings made for x
  40 settings made for y
  40 settings made for z
change_box all     x final 0 27.200000000000003 y final 0 5.44 z final 0 5.44      xy final 0.0 xz final 0.0 yz final 0.0 units box
Changing box ...
  triclinic box = (0 0 0) to (27.2 5.44 5.44) with tilt (0 0 0)
  triclinic box = (0 0 0) to (27.2 5.44 5.44) with tilt (0 0 0)
  triclinic box = (0 0 0) to (27.2 5.44 5.44) with tilt (0 0 0)
  triclinic box = (0 0 0) to (27.2 5.44 5.44) with tilt (0 0 0)
  triclinic box = (0 0 0) to (27.2 5.44 5.44) with tilt (0 0 0)
  triclinic box = (0 0 0) to (27.2 5.44 5.44) with tilt (0 0 0)
echo none
run 0
WARNING: No fixes with time integration, atoms won't move (src/verlet.cpp:60)
Per MPI rank memory allocation (min/avg/max) = 3.608 | 3.608 | 3.608 Mbytes
    PotEng          Pxx           E_mol          E_coul    
-6527.0805      10325.98       0              0            
Loop time of 6.44e-07 on 1 procs for 0 steps with 40 atoms

155.3% CPU use with 1 MPI tasks x 1 OpenMP threads

MPI task timing breakdown:
Section |  min time  |  avg time  |  max time  |%varavg| %total
---------------------------------------------------------------
Pair    | 0          | 0          | 0          |   0.0 |  0.00
Neigh   | 0          | 0          | 0          |   0.0 |  0.00
Comm    | 0          | 0          | 0          |   0.0 |  0.00
Output  | 0          | 0          | 0          |   0.0 |  0.00
Modify  | 0          | 0          | 0          |   0.0 |  0.00
Other   |            | 6.44e-07   |            |       |100.00

Nlocal:             40 ave          40 max          40 min
Histogram: 1 0 0 0 0 0 0 0 0 0
Nghost:            840 ave         840 max         840 min
Histogram: 1 0 0 0 0 0 0 0 0 0
Neighs:           1960 ave        1960 max        1960 min
Histogram: 1 0 0 0 0 0 0 0 0 0
FullNghs:         3920 ave        3920 max        3920 min
Histogram: 1 0 0 0 0 0 0 0 0 0

Total # of neighbors = 3920
Ave neighs/atom = 98
Neighbor list builds = 0
Dangerous builds = 0
set atom * x 0.0 y 0.0 z 0.0
Setting atom values ...
  40 settings made for x
  40 settings made for y
  40 settings made for z
change_box all     x final 0 30.6 y final 0 5.44 z final 0 5.44      xy final 0.0 xz final 0.0 yz final 0.0 units box
Changing box ...
  triclinic box = (0 0 0) to (30.6 5.44 5.44) with tilt (0 0 0)
  triclinic box = (0 0 0) to (30.6 5.44 5.44) with tilt (0 0 0)
  triclinic box = (0 0 0) to (30.6 5.44 5.44) with tilt (0 0 0)
  triclinic box = (0 0 0) to (30.6 5.44 5.44) with tilt (0 0 0)
  triclinic box = (0 0 0) to (30.6 5.44 5.44) with tilt (0 0 0)
  triclinic box = (0 0 0) to (30.6 5.44 5.44) with tilt (0 0 0)
echo none
run 0
WARNING: No fixes with time integration, atoms won't move (src/verlet.cpp:60)
Per MPI rank memory allocation (min/avg/max) = 3.608 | 3.608 | 3.608 Mbytes
    PotEng          Pxx           E_mol          E_coul    
-6519.2893      7532.3383      0              0            
Loop time of 6.41e-07 on 1 procs for 0 steps with 40 atoms

156.0% CPU use with 1 MPI tasks x 1 OpenMP threads

MPI task timing breakdown:
Section |  min time  |  avg time  |  max time  |%varavg| %total
---------------------------------------------------------------
Pair    | 0          | 0          | 0          |   0.0 |  0.00
Neigh   | 0          | 0          | 0          |   0.0 |  0.00
Comm    | 0          | 0          | 0          |   0.0 |  0.00
Output  | 0          | 0          | 0          |   0.0 |  0.00
Modify  | 0          | 0          | 0          |   0.0 |  0.00
Other   |            | 6.41e-07   |            |       |100.00

Nlocal:             40 ave          40 max          40 min
Histogram: 1 0 0 0 0 0 0 0 0 0
Nghost:            783 ave         783 max         783 min
Histogram: 1 0 0 0 0 0 0 0 0 0
Neighs:           1792 ave        1792 max        1792 min
Histogram: 1 0 0 0 0 0 0 0 0 0
FullNghs:         3584 ave        3584 max        3584 min
Histogram: 1 0 0 0 0 0 0 0 0 0

Total # of neighbors = 3584
Ave neighs/atom = 89.6
Neighbor list builds = 0
Dangerous builds = 0
set atom * x 0.0 y 0.0 z 0.0
Setting atom values ...
  40 settings made for x
  40 settings made for y
  40 settings made for z
change_box all     x final 0 27.200000000000003 y final 0 5.44 z final 0 5.44      xy final 0.0 xz final 0.0 yz final 0.0 units box
Changing box ...
  triclinic box = (0 0 0) to (27.2 5.44 5.44) with tilt (0 0 0)
  triclinic box = (0 0 0) to (27.2 5.44 5.44) with tilt (0 0 0)
  triclinic box = (0 0 0) to (27.2 5.44 5.44) with tilt (0 0 0)
  triclinic box = (0 0 0) to (27.2 5.44 5.44) with tilt (0 0 0)
  triclinic box = (0 0 0) to (27.2 5.44 5.44) with tilt (0 0 0)
  triclinic box = (0 0 0) to (27.2 5.44 5.44) with tilt (0 0 0)
echo none
run 0
WARNING: No fixes with time integration, atoms won't move (src/verlet.cpp:60)
Per MPI rank memory allocation (min/avg/max) = 3.608 | 3.608 | 3.608 Mbytes
    PotEng          Pxx           E_mol          E_coul    
-6527.0805      10325.98       0              0            
Loop time of 7.59e-07 on 1 procs for 0 steps with 40 atoms

263.5% CPU use with 1 MPI tasks x 1 OpenMP threads

MPI task timing breakdown:
Section |  min time  |  avg time  |  max time  |%varavg| %total
---------------------------------------------------------------
Pair    | 0          | 0          | 0          |   0.0 |  0.00
Neigh   | 0          | 0          | 0          |   0.0 |  0.00
Comm    | 0          | 0          | 0          |   0.0 |  0.00
Output  | 0          | 0          | 0          |   0.0 |  0.00
Modify  | 0          | 0          | 0          |   0.0 |  0.00
Other   |            | 7.59e-07   |            |       |100.00

Nlocal:             40 ave          40 max          40 min
Histogram: 1 0 0 0 0 0 0 0 0 0
Nghost:            840 ave         840 max         840 min
Histogram: 1 0 0 0 0 0 0 0 0 0
Neighs:           1960 ave        1960 max        1960 min
Histogram: 1 0 0 0 0 0 0 0 0 0
FullNghs:         3920 ave        3920 max        3920 min
Histogram: 1 0 0 0 0 0 0 0 0 0

Total # of neighbors = 3920
Ave neighs/atom = 98
Neighbor list builds = 0
Dangerous builds = 0
set atom * x 0.0 y 0.0 z 0.0
Setting atom values ...
  40 settings made for x
  40 settings made for y
  40 settings made for z
change_box all     x final 0 30.700000000000003 y final 0 5.44 z final 0 5.44      xy final 0.0 xz final 0.0 yz final 0.0 units box
Changing box ...
  triclinic box = (0 0 0) to (30.7 5.44 5.44) with tilt (0 0 0)
  triclinic box = (0 0 0) to (30.7 5.44 5.44) with tilt (0 0 0)
  triclinic box = (0 0 0) to (30.7 5.44 5.44) with tilt (0 0 0)
  triclinic box = (0 0 0) to (30.7 5.44 5.44) with tilt (0 0 0)
  triclinic box = (0 0 0) to (30.7 5.44 5.44) with tilt (0 0 0)
  triclinic box = (0 0 0) to (30.7 5.44 5.44) with tilt (0 0 0)
echo none
run 0
WARNING: No fixes with time integration, atoms won't move (src/verlet.cpp:60)
Per MPI rank memory allocation (min/avg/max) = 3.608 | 3.608 | 3.608 Mbytes
    PotEng          Pxx           E_mol          E_coul    
-6519.266       7633.8909      0              0            
Loop time of 6.97e-07 on 1 procs for 0 steps with 40 atoms

143.5% CPU use with 1 MPI tasks x 1 OpenMP threads

MPI task timing breakdown:
Section |  min time  |  avg time  |  max time  |%varavg| %total
---------------------------------------------------------------
Pair    | 0          | 0          | 0          |   0.0 |  0.00
Neigh   | 0          | 0          | 0          |   0.0 |  0.00
Comm    | 0          | 0          | 0          |   0.0 |  0.00
Output  | 0          | 0          | 0          |   0.0 |  0.00
Modify  | 0          | 0          | 0          |   0.0 |  0.00
Other   |            | 6.97e-07   |            |       |100.00

Nlocal:             40 ave          40 max          40 min
Histogram: 1 0 0 0 0 0 0 0 0 0
Nghost:            783 ave         783 max         783 min
Histogram: 1 0 0 0 0 0 0 0 0 0
Neighs:           1792 ave        1792 max        1792 min
Histogram: 1 0 0 0 0 0 0 0 0 0
FullNghs:         3584 ave        3584 max        3584 min
Histogram: 1 0 0 0 0 0 0 0 0 0

Total # of neighbors = 3584
Ave neighs/atom = 89.6
Neighbor list builds = 0
Dangerous builds = 0
Total wall time: 0:00:12
