2
Lattice="3.2816064891645045 -2.828788195664852e-96 -2.2158207957907842e-49 -4.246576487968762e-81 3.281606489164504 5.7052672160909655e-49 2.2158207957907846e-49 -1.1410534432181952e-48 3.2816064891645045" Properties=species:S:1:pos:R:3:forces:R:3 n_minim_iter=1 energy=-324.9815521818843 stress="0.07270344319069016 -2.4614759067617255e-17 -1.1109227310354348e-16 -2.4614759067617255e-17 0.0727034431906904 -8.82321302627421e-18 -1.1109227310354348e-16 -8.82321302627421e-18 0.07270344319069086" free_energy=-324.9815521818843 pbc="T T T"
Si       0.00000000       0.00000000       0.00000000      -0.00000000      -0.00000000      -0.00000000
Si       1.64080324       1.64080324       1.64080324       0.00000000       0.00000000       0.00000000
