2
Lattice="3.1387436913555016 -6.525476031213578e-99 -2.119356347851862e-49 3.6846265176943897e-98 3.1387436913555016 5.4568917818547165e-49 2.119356347851862e-49 -1.0913783563709433e-48 3.1387436913555016" Properties=species:S:1:pos:R:3:forces:R:3 n_minim_iter=1 energy=-325.1984749654467 stress="0.014817736790244687 -9.194922665962036e-19 -5.516953599577222e-18 -9.194922665962036e-19 0.014817736790245095 -2.229768746495794e-16 -5.516953599577222e-18 -2.229768746495794e-16 0.01481773679024367" free_energy=-325.1984749654467 pbc="T T T"
Si       0.00000000       0.00000000       0.00000000       0.00000000       0.00000000       0.00000000
Si       1.56937185       1.56937185       1.56937185      -0.00000000      -0.00000000      -0.00000000
