2
Lattice="2.9815373645162 -2.791718596017358e-96 -2.0132067990285662e-49 3.500079240955372e-98 2.9815373645162 5.183579272984498e-49 2.013206799028566e-49 1.4765331414290642e-47 2.9815373645162" Properties=species:S:1:pos:R:3:forces:R:3 n_minim_iter=1 energy=-325.11718892290276 stress="-0.05873146901876827 -5.372133567588318e-16 -1.4252385546759656e-15 -5.372133567588318e-16 -0.0587314690187681 -9.990283476567751e-16 -1.4252385546759656e-15 -9.990283476567751e-16 -0.058731469018764776" free_energy=-325.11718892290276 pbc="T T T"
Si       0.00000000       0.00000000       0.00000000      -0.00000000      -0.00000000      -0.00000000
Si       1.49076868       1.49076868       1.49076868       0.00000000       0.00000000       0.00000000
