2
Lattice="3.326565589513829 -2.809005812815319e-96 -2.2461782776652914e-49 -4.2168791772922093e-81 3.326565589513828 5.783431274497994e-49 2.2461782776652918e-49 4.930380657631326e-32 3.326565589513829" Properties=species:S:1:pos:R:3:forces:R:3 n_minim_iter=1 energy=-324.8048081867747 stress="0.08716407825789992 2.35619893315277e-18 -2.2478137822277426e-17 2.35619893315277e-18 0.08716407825790025 -1.1392221841793643e-16 -2.2478137822277426e-17 -1.1392221841793643e-16 0.08716407825790051" free_energy=-324.8048081867747 pbc="T T T"
Si       0.00000000       0.00000000       0.00000000      -0.00000000       0.00000000      -0.00000000
Si       1.66328279       1.66328279       1.66328279       0.00000000      -0.00000000       0.00000000
