2
Lattice="3.235380522045291 -4.1654262343350635e-96 -2.1846078945527774e-49 3.798070195789607e-98 3.235380522045291 5.62490063478143e-49 2.184607894552777e-49 -9.417438807713477e-48 3.235380522045291" Properties=species:S:1:pos:R:3:forces:R:3 n_minim_iter=1 energy=-325.03308159569804 stress="0.0671329374187901 -3.6316196600115524e-17 -2.4955220005044123e-16 -3.6316196600115524e-17 0.06713293741879023 -3.222870366825484e-16 -2.4955220005044123e-16 -3.222870366825484e-16 0.06713293741879009" free_energy=-325.03308159569804 pbc="T T T"
Si       0.00000000       0.00000000       0.00000000       0.00000000       0.00000000       0.00000000
Si       1.61769026       1.61769026       1.61769026      -0.00000000       0.00000000      -0.00000000
