2
Lattice="3.0088924463328857 4.600239328507817e-97 -2.0316776179278193e-49 -4.247020143163614e-97 3.0088924463328857 5.2311377026735975e-49 2.0316776179278197e-49 -5.2311377026735975e-49 3.0088924463328857" Properties=species:S:1:pos:R:3:forces:R:3 n_minim_iter=1 energy=-325.18168129353467 stress="-0.029525555945318357 1.512927736024412e-17 -8.531920347416355e-17 1.512927736024412e-17 -0.02952555594531884 1.4087589410850263e-16 -8.531920347416355e-17 1.4087589410850263e-16 -0.029525555945318256" free_energy=-325.18168129353467 pbc="T T T"
Si       0.00000000       0.00000000       0.00000000       0.00000000      -0.00000000      -0.00000000
Si       1.50444622       1.50444622       1.50444622       0.00000000       0.00000000      -0.00000000
