2
Lattice="3.281606489164504 -2.828788195664852e-96 -2.215820795790784e-49 3.852335673000312e-98 3.281606489164504 5.705267216090967e-49 2.215820795790784e-49 -2.282106886436389e-48 3.281606489164504" Properties=species:S:1:pos:R:3:forces:R:3 n_minim_iter=1 energy=-324.92617521054024 stress="0.07766709540112936 5.203272644045703e-18 -2.529968604472788e-16 5.203272644045703e-18 0.07766709540112936 -2.0322215798442655e-16 -2.529968604472788e-16 -2.0322215798442655e-16 0.07766709540112955" free_energy=-324.92617521054024 pbc="T T T"
Si       0.00000000       0.00000000       0.00000000       0.00000000       0.00000000      -0.00000000
Si       1.64080324       1.64080324       1.64080324      -0.00000000      -0.00000000       0.00000000
