2
Lattice="2.953670898988561 -2.765626241467439e-96 -1.9943906813663144e-49 3.4673663061208594e-98 2.9536708989885607 5.135131772430083e-49 1.9943906813663148e-49 1.360030323438485e-47 2.953670898988561" Properties=species:S:1:pos:R:3:forces:R:3 n_minim_iter=1 energy=-325.0673182414146 stress="-0.077951268175169 4.615457110198687e-16 1.3571705854959968e-16 4.615457110198687e-16 -0.07795126817517241 -1.128821248888734e-15 1.3571705854959968e-16 -1.128821248888734e-15 -0.07795126817517627" free_energy=-325.0673182414146 pbc="T T T"
Si       0.00000000       0.00000000       0.00000000       0.00000000       0.00000000       0.00000000
Si       1.47683545       1.47683545       1.47683545      -0.00000000      -0.00000000      -0.00000000
