2
Lattice="2.8667473218859816 4.732600446834244e-114 -1.9356977605592695e-49 3.365325187539846e-98 2.8667473218859816 4.98400998607752e-49 1.935697760559269e-49 9.760134280511735e-32 2.8667473218859816" Properties=species:S:1:pos:R:3:forces:R:3 n_minim_iter=1 energy=-324.90181115438935 stress="-0.1613529814057833 1.0595755202420343e-15 -3.655678344770361e-17 1.0595755202420343e-15 -0.16135298140578427 -1.896383141349625e-16 -3.655678344770361e-17 -1.896383141349625e-16 -0.16135298140578386" free_energy=-324.90181115438935 pbc="T T T"
Si       0.00000000       0.00000000       0.00000000       0.00000000       0.00000000       0.00000000
Si       1.43337366       1.43337366       1.43337366      -0.00000000      -0.00000000      -0.00000000
