2
Lattice="2.805734081464733 9.114611084456627e-114 -1.8945001314741308e-49 3.2937006696775735e-98 2.805734081464733 4.877934854439343e-49 1.8945001314741316e-49 -4.877934854439377e-49 2.805734081464733" Properties=species:S:1:pos:R:3:forces:R:3 n_minim_iter=1 energy=-324.1966210626622 stress="-0.5394334593638233 -5.6423110452565e-16 1.1058426992930336e-16 -5.6423110452565e-16 -0.539433459363823 6.584790618517608e-16 1.1058426992930336e-16 6.584790618517608e-16 -0.5394334593638398" free_energy=-324.1966210626622 pbc="T T T"
Si       0.00000000       0.00000000       0.00000000      -0.00000000      -0.00000000      -0.00000000
Si       1.40286704       1.40286704       1.40286704       0.00000000       0.00000000       0.00000000
