2
Lattice="2.8667473218859816 4.5802161486563454e-114 -1.9356977605592695e-49 3.3653251875398466e-98 2.8667473218859816 4.9840099860775216e-49 1.935697760559269e-49 -9.96138835001356e-32 2.8667473218859816" Properties=species:S:1:pos:R:3:forces:R:3 n_minim_iter=1 energy=-324.75404067052966 stress="-0.24624306758182746 -2.714341170991993e-15 -3.652108346386797e-16 -2.714341170991993e-15 -0.24624306758182712 -6.927224863469149e-16 -3.652108346386797e-16 -6.927224863469149e-16 -0.24624306758182743" free_energy=-324.75404067052966 pbc="T T T"
Si       0.00000000       0.00000000       0.00000000       0.00000000       0.00000000       0.00000000
Si       1.43337366       1.43337366       1.43337366      -0.00000000      -0.00000000      -0.00000000
