2
Lattice="3.2117637638699694 -3.832473103574406e-96 -2.168661283017596e-49 3.870176564247279e-96 3.2117637638699694 5.583841502124025e-49 2.168661283017596e-49 -5.583841502124025e-49 3.2117637638699694" Properties=species:S:1:pos:R:3:forces:R:3 n_minim_iter=1 energy=-325.1216205894334 stress="0.051999549599032635 -8.235986270884005e-17 -7.282796702472204e-18 -8.235986270884005e-17 0.05199954959903252 -8.567996120555533e-19 -7.282796702472204e-18 -8.567996120555533e-19 0.05199954959903239" free_energy=-325.1216205894334 pbc="T T T"
Si       0.00000000       0.00000000       0.00000000       0.00000000       0.00000000       0.00000000
Si       1.60588188       1.60588188       1.60588188      -0.00000000      -0.00000000      -0.00000000
