2
Lattice="3.326565589513828 -2.827986157573758e-96 -2.246178277665291e-49 -4.245372468486033e-81 3.326565589513828 5.783431274497996e-49 2.246178277665291e-49 -1.1566862548995992e-48 3.326565589513828" Properties=species:S:1:pos:R:3:forces:R:3 n_minim_iter=1 energy=-324.86723763956024 stress="0.08242592588201976 -8.157737734885054e-17 1.8484140202120924e-16 -8.157737734885054e-17 0.08242592588201976 1.1949294589560481e-16 1.8484140202120924e-16 1.1949294589560481e-16 0.08242592588201988" free_energy=-324.86723763956024 pbc="T T T"
Si       0.00000000       0.00000000       0.00000000       0.00000000       0.00000000       0.00000000
Si       1.66328279       1.66328279       1.66328279      -0.00000000      -0.00000000      -0.00000000
