2
Lattice="2.953670898988562 -2.7656262414674403e-96 -1.9943906813663148e-49 3.467366306120859e-98 2.953670898988562 5.1351317724300844e-49 1.9943906813663144e-49 1.4627329588870873e-47 2.953670898988562" Properties=species:S:1:pos:R:3:forces:R:3 n_minim_iter=1 energy=-325.11718892290276 stress="-0.05873146901876827 -5.372133567588318e-16 -1.4252385546759656e-15 -5.372133567588318e-16 -0.0587314690187681 -9.990283476567751e-16 -1.4252385546759656e-15 -9.990283476567751e-16 -0.058731469018764776" free_energy=-325.11718892290276 pbc="T T T"
Si       0.00000000       0.00000000       0.00000000      -0.00000000      -0.00000000      -0.00000000
Si       1.47683545       1.47683545       1.47683545       0.00000000       0.00000000       0.00000000
