2
Lattice="3.258657441218938 -2.809005812815319e-96 -2.2003250384995643e-49 -4.2168791772922093e-81 3.2586574412189377 5.66536893720937e-49 2.2003250384995647e-49 -1.1330737874418762e-48 3.258657441218938" Properties=species:S:1:pos:R:3:forces:R:3 n_minim_iter=1 energy=-324.9815521818843 stress="0.07270344319069016 -2.4614759067617255e-17 -1.1109227310354348e-16 -2.4614759067617255e-17 0.0727034431906904 -8.82321302627421e-18 -1.1109227310354348e-16 -8.82321302627421e-18 0.07270344319069086" free_energy=-324.9815521818843 pbc="T T T"
Si       0.00000000       0.00000000       0.00000000      -0.00000000      -0.00000000      -0.00000000
Si       1.62932872       1.62932872       1.62932872       0.00000000       0.00000000       0.00000000
