2
Lattice="3.163459226218084 -3.774833172700913e-96 -2.136044880224171e-49 -8.500168634980812e-81 3.163459226218084 5.4998612028517905e-49 2.136044880224171e-49 1.4907612453135895e-31 3.163459226218084" Properties=species:S:1:pos:R:3:forces:R:3 n_minim_iter=1 energy=-325.1822655914045 stress="0.028998401544696892 -5.606631461411615e-16 -2.746654756360943e-16 -5.606631461411615e-16 0.02899840154469705 -6.866636890902358e-17 -2.746654756360943e-16 -6.866636890902358e-17 0.028998401544696725" free_energy=-325.1822655914045 pbc="T T T"
Si       0.00000000       0.00000000       0.00000000      -0.00000000      -0.00000000       0.00000000
Si       1.58172961       1.58172961       1.58172961       0.00000000       0.00000000      -0.00000000
