2
Lattice="3.163459226218084 -3.774833172700914e-96 -2.1360448802241714e-49 3.811969577895994e-96 3.163459226218084 5.4998612028517935e-49 2.1360448802241718e-49 -5.499861202851795e-49 3.163459226218084" Properties=species:S:1:pos:R:3:forces:R:3 n_minim_iter=1 energy=-325.15618277065994 stress="0.04153288008291093 -2.581955668143222e-16 -3.2394995564649254e-16 -2.581955668143222e-16 0.04153288008291073 -2.283869105437383e-16 -3.2394995564649254e-16 -2.283869105437383e-16 0.04153288008291123" free_energy=-325.15618277065994 pbc="T T T"
Si       0.00000000       0.00000000       0.00000000       0.00000000      -0.00000000      -0.00000000
Si       1.58172961       1.58172961       1.58172961       0.00000000       0.00000000       0.00000000
