2
Lattice="2.896303501554278 4.7813935818402524e-114 -1.9556548144502176e-49 3.400021707573476e-98 2.896303501554278 5.03539515472928e-49 1.9556548144502172e-49 9.860761315262648e-32 2.896303501554278" Properties=species:S:1:pos:R:3:forces:R:3 n_minim_iter=1 energy=-324.90181115438935 stress="-0.1613529814057833 1.0595755202420343e-15 -3.655678344770361e-17 1.0595755202420343e-15 -0.16135298140578427 -1.896383141349625e-16 -3.655678344770361e-17 -1.896383141349625e-16 -0.16135298140578386" free_energy=-324.90181115438935 pbc="T T T"
Si       0.00000000       0.00000000       0.00000000       0.00000000       0.00000000       0.00000000
Si       1.44815175       1.44815175       1.44815175      -0.00000000      -0.00000000      -0.00000000
