2
Lattice="2.9252684580709523 -2.7390320342555363e-96 -1.975212660039181e-49 2.773372276058869e-96 2.9252684580709523 5.08575244692008e-49 1.9752126600391806e-49 -5.0857524469200775e-49 2.9252684580709523" Properties=species:S:1:pos:R:3:forces:R:3 n_minim_iter=1 energy=-324.9995819684332 stress="-0.10877929291467979 1.1426178826418506e-15 2.0024918933053686e-15 1.1426178826418506e-15 -0.10877929291467921 2.7631283489019816e-15 2.0024918933053686e-15 2.7631283489019816e-15 -0.10877929291468137" free_energy=-324.9995819684332 pbc="T T T"
Si       0.00000000       0.00000000       0.00000000       0.00000000       0.00000000      -0.00000000
Si       1.46263423       1.46263423       1.46263423      -0.00000000      -0.00000000       0.00000000
