2
Lattice="3.062158208272598 4.6816763546921983e-97 -2.0676439604491936e-49 7.168016838998226e-97 3.062158208272598 5.323743384170808e-49 2.067643960449194e-49 -2.2183735488573998e-48 3.062158208272598" Properties=species:S:1:pos:R:3:forces:R:3 n_minim_iter=1 energy=-325.1981796493328 stress="-0.01518152989968712 4.0864947650885503e-16 3.934248064792525e-16 4.0864947650885503e-16 -0.015181529899687844 -6.186532583457533e-17 3.934248064792525e-16 -6.186532583457533e-17 -0.015181529899689069" free_energy=-325.1981796493328 pbc="T T T"
Si       0.00000000       0.00000000       0.00000000       0.00000000       0.00000000       0.00000000
Si       1.53107910       1.53107910       1.53107910      -0.00000000      -0.00000000      -0.00000000
