2
Lattice="2.836568793091575 4.5319997663224125e-114 -1.9153204813486708e-49 3.329898080902524e-98 2.836568793091575 4.931542826614894e-49 1.9153204813486704e-49 -9.8565238428217e-32 2.836568793091575" Properties=species:S:1:pos:R:3:forces:R:3 n_minim_iter=1 energy=-324.75404067052966 stress="-0.24624306758182746 -2.714341170991993e-15 -3.652108346386797e-16 -2.714341170991993e-15 -0.24624306758182712 -6.927224863469149e-16 -3.652108346386797e-16 -6.927224863469149e-16 -0.24624306758182743" free_energy=-324.75404067052966 pbc="T T T"
Si       0.00000000       0.00000000       0.00000000       0.00000000       0.00000000       0.00000000
Si       1.41828440       1.41828440       1.41828440      -0.00000000      -0.00000000      -0.00000000
