2
Lattice="3.187794484283664 -3.803871492098509e-96 -2.152476640421713e-49 3.8412935731754085e-96 3.187794484283664 5.5421694901175275e-49 2.1524766404217133e-49 -5.542169490117529e-49 3.187794484283664" Properties=species:S:1:pos:R:3:forces:R:3 n_minim_iter=1 energy=-325.15618277065994 stress="0.04153288008291093 -2.581955668143222e-16 -3.2394995564649254e-16 -2.581955668143222e-16 0.04153288008291073 -2.283869105437383e-16 -3.2394995564649254e-16 -2.283869105437383e-16 0.04153288008291123" free_energy=-325.15618277065994 pbc="T T T"
Si       0.00000000       0.00000000       0.00000000       0.00000000      -0.00000000      -0.00000000
Si       1.59389724       1.59389724       1.59389724       0.00000000       0.00000000       0.00000000
