2
Lattice="3.0881099389135787 -6.420208009858372e-99 -2.0851672023829606e-49 -3.3164517721644165e-98 3.0881099389135787 5.368862004735365e-49 -2.0181198424721118e-49 -8.962941919680834e-50 3.0881099389135787" Properties=species:S:1:pos:R:3:forces:R:3 n_minim_iter=2 energy=-325.20387467837975 stress="-0.00021264370214040288 1.6705450436053155e-16 1.5645160916134406e-16 1.6705450436053155e-16 -0.00021264370213989374 7.96395239405637e-17 1.5645160916134406e-16 7.96395239405637e-17 -0.00021264370214026554" free_energy=-325.20387467837975 pbc="T T T"
Si       0.00000000       0.00000000       0.00000000       0.00000000       0.00000000       0.00000000
Si       1.54405497       1.54405497       1.54405497      -0.00000000      -0.00000000      -0.00000000
