2
Lattice="2.836568793091575 -4.5319997663224154e-114 -1.915320481348671e-49 6.639948523537305e-97 2.836568793091575 4.931542826614894e-49 1.9153204813486708e-49 -9.8565238428217e-32 2.836568793091575" Properties=species:S:1:pos:R:3:forces:R:3 n_minim_iter=1 energy=-324.5293036383892 stress="-0.37137197068089506 4.986020968220059e-16 4.864410700702496e-16 4.986020968220059e-16 -0.37137197068089356 -9.777465508412018e-16 4.864410700702496e-16 -9.777465508412018e-16 -0.3713719706809025" free_energy=-324.5293036383892 pbc="T T T"
Si       0.00000000       0.00000000       0.00000000       0.00000000       0.00000000       0.00000000
Si       1.41828440       1.41828440       1.41828440      -0.00000000      -0.00000000      -0.00000000
