2
Lattice="3.138743691355502 -3.745341083753759e-96 -2.119356347851862e-49 -8.43375835458442e-81 3.138743691355502 5.456891781854716e-49 2.119356347851862e-49 1.4791141972893978e-31 3.138743691355502" Properties=species:S:1:pos:R:3:forces:R:3 n_minim_iter=1 energy=-325.1822655914045 stress="0.028998401544696892 -5.606631461411615e-16 -2.746654756360943e-16 -5.606631461411615e-16 0.02899840154469705 -6.866636890902358e-17 -2.746654756360943e-16 -6.866636890902358e-17 0.028998401544696725" free_energy=-325.1822655914045 pbc="T T T"
Si       0.00000000       0.00000000       0.00000000      -0.00000000      -0.00000000       0.00000000
Si       1.56937185       1.56937185       1.56937185       0.00000000       0.00000000      -0.00000000
