2
Lattice="3.2353805220452907 -3.860654064926147e-96 -2.184607894552778e-49 3.8986347668840436e-96 3.2353805220452907 5.624900634781432e-49 2.184607894552778e-49 -5.624900634781432e-49 3.2353805220452907" Properties=species:S:1:pos:R:3:forces:R:3 n_minim_iter=1 energy=-325.0801216295445 stress="0.06041237158248443 6.723020955929242e-17 9.885563523983185e-17 6.723020955929242e-17 0.0604123715824844 -2.1572310232420935e-17 9.885563523983185e-17 -2.1572310232420935e-17 0.06041237158248401" free_energy=-325.0801216295445 pbc="T T T"
Si       0.00000000       0.00000000       0.00000000       0.00000000       0.00000000       0.00000000
Si       1.61769026       1.61769026       1.61769026      -0.00000000      -0.00000000      -0.00000000
