2
Lattice="3.0621582082725984 0.0 -2.0676439604491944e-49 -4.1814415423894997e-81 3.062158208272598 5.3237433841708066e-49 2.0676439604491944e-49 -1.1536248720232383e-48 3.0621582082725984" Properties=species:S:1:pos:R:3:forces:R:3 n_minim_iter=1 energy=-325.20387467837975 stress="-0.00021264370214040288 1.6705450436053155e-16 1.5645160916134406e-16 1.6705450436053155e-16 -0.00021264370213989374 7.96395239405637e-17 1.5645160916134406e-16 7.96395239405637e-17 -0.00021264370214026554" free_energy=-325.20387467837975 pbc="T T T"
Si       0.00000000       0.00000000       0.00000000       0.00000000       0.00000000       0.00000000
Si       1.53107910       1.53107910       1.53107910      -0.00000000      -0.00000000      -0.00000000
