2
Lattice="2.896303501554278 -2.711911123847776e-96 -1.955654814450217e-49 2.7459113409235113e-96 2.896303501554278 5.03539515472928e-49 1.9556548144502164e-49 -5.035395154729278e-49 2.896303501554278" Properties=species:S:1:pos:R:3:forces:R:3 n_minim_iter=1 energy=-324.9995819684332 stress="-0.10877929291467979 1.1426178826418506e-15 2.0024918933053686e-15 1.1426178826418506e-15 -0.10877929291467921 2.7631283489019816e-15 2.0024918933053686e-15 2.7631283489019816e-15 -0.10877929291468137" free_energy=-324.9995819684332 pbc="T T T"
Si       0.00000000       0.00000000       0.00000000       0.00000000       0.00000000      -0.00000000
Si       1.44815175       1.44815175       1.44815175      -0.00000000      -0.00000000       0.00000000
