2
Lattice="3.2117637638699694 -3.832473103574406e-96 -2.1686612830175957e-49 3.8701765642472805e-96 3.2117637638699694 5.583841502124026e-49 2.1686612830175957e-49 -5.583841502124026e-49 3.2117637638699694" Properties=species:S:1:pos:R:3:forces:R:3 n_minim_iter=1 energy=-325.0801216295445 stress="0.06041237158248443 6.723020955929242e-17 9.885563523983185e-17 6.723020955929242e-17 0.0604123715824844 -2.1572310232420935e-17 9.885563523983185e-17 -2.1572310232420935e-17 0.06041237158248401" free_energy=-325.0801216295445 pbc="T T T"
Si       0.00000000       0.00000000       0.00000000       0.00000000       0.00000000       0.00000000
Si       1.60588188       1.60588188       1.60588188      -0.00000000      -0.00000000      -0.00000000
