2
Lattice="3.187794484283664 -3.803871492098511e-96 -2.152476640421713e-49 3.841293573175409e-96 3.187794484283664 5.5421694901175275e-49 2.152476640421713e-49 -5.5421694901175275e-49 3.187794484283664" Properties=species:S:1:pos:R:3:forces:R:3 n_minim_iter=1 energy=-325.1216205894334 stress="0.051999549599032635 -8.235986270884005e-17 -7.282796702472204e-18 -8.235986270884005e-17 0.05199954959903252 -8.567996120555533e-19 -7.282796702472204e-18 -8.567996120555533e-19 0.05199954959903239" free_energy=-325.1216205894334 pbc="T T T"
Si       0.00000000       0.00000000       0.00000000       0.00000000       0.00000000       0.00000000
Si       1.59389724       1.59389724       1.59389724      -0.00000000      -0.00000000      -0.00000000
