2
Lattice="3.035758979036048 4.641315067360616e-97 -2.0498185565415827e-49 -4.284941972408909e-97 3.035758979036048 5.277846760797265e-49 2.049818556541583e-49 -5.277846760797265e-49 3.035758979036048" Properties=species:S:1:pos:R:3:forces:R:3 n_minim_iter=1 energy=-325.18168129353467 stress="-0.029525555945318357 1.512927736024412e-17 -8.531920347416355e-17 1.512927736024412e-17 -0.02952555594531884 1.4087589410850263e-16 -8.531920347416355e-17 1.4087589410850263e-16 -0.029525555945318256" free_energy=-325.18168129353467 pbc="T T T"
Si       0.00000000       0.00000000       0.00000000       0.00000000      -0.00000000      -0.00000000
Si       1.51787949       1.51787949       1.51787949       0.00000000       0.00000000      -0.00000000
