2
Lattice="2.805734081464733 -4.482734997483455e-114 -1.8945001314741304e-49 6.567769453373736e-97 2.805734081464733 4.877934854439342e-49 1.89450013147413e-49 -9.749379228146146e-32 2.805734081464733" Properties=species:S:1:pos:R:3:forces:R:3 n_minim_iter=1 energy=-324.5293036383892 stress="-0.37137197068089506 4.986020968220059e-16 4.864410700702496e-16 4.986020968220059e-16 -0.37137197068089356 -9.777465508412018e-16 4.864410700702496e-16 -9.777465508412018e-16 -0.3713719706809025" free_energy=-324.5293036383892 pbc="T T T"
Si       0.00000000       0.00000000       0.00000000       0.00000000       0.00000000       0.00000000
Si       1.40286704       1.40286704       1.40286704      -0.00000000      -0.00000000      -0.00000000
