2
Lattice="3.258657441218938 -4.195394359914034e-96 -2.2003250384995643e-49 3.825395381300505e-98 3.258657441218938 5.6653689372093725e-49 2.200325038499564e-49 -9.485192495558312e-48 3.258657441218938" Properties=species:S:1:pos:R:3:forces:R:3 n_minim_iter=1 energy=-325.03308159569804 stress="0.0671329374187901 -3.6316196600115524e-17 -2.4955220005044123e-16 -3.6316196600115524e-17 0.06713293741879023 -3.222870366825484e-16 -2.4955220005044123e-16 -3.222870366825484e-16 0.06713293741879009" free_energy=-325.03308159569804 pbc="T T T"
Si       0.00000000       0.00000000       0.00000000       0.00000000       0.00000000       0.00000000
Si       1.62932872       1.62932872       1.62932872      -0.00000000       0.00000000      -0.00000000
