2
Lattice="3.304238973246122 -2.809005812815319e-96 -2.2311028014346788e-49 -4.2168791772922093e-81 3.304238973246122 5.744615129948375e-49 2.2311028014346788e-49 -1.148923025989675e-48 3.304238973246122" Properties=species:S:1:pos:R:3:forces:R:3 n_minim_iter=1 energy=-324.86723763956024 stress="0.08242592588201976 -8.157737734885054e-17 1.8484140202120924e-16 -8.157737734885054e-17 0.08242592588201976 1.1949294589560481e-16 1.8484140202120924e-16 1.1949294589560481e-16 0.08242592588201988" free_energy=-324.86723763956024 pbc="T T T"
Si       0.00000000       0.00000000       0.00000000       0.00000000       0.00000000       0.00000000
Si       1.65211949       1.65211949       1.65211949      -0.00000000      -0.00000000      -0.00000000
