2
Lattice="2.925268458070953 -2.7390320342555375e-96 -1.9752126600391814e-49 3.434024180333242e-98 2.9252684580709527 5.085752446920081e-49 1.9752126600391818e-49 1.3469522987605006e-47 2.925268458070953" Properties=species:S:1:pos:R:3:forces:R:3 n_minim_iter=1 energy=-325.0673182414146 stress="-0.077951268175169 4.615457110198687e-16 1.3571705854959968e-16 4.615457110198687e-16 -0.07795126817517241 -1.128821248888734e-15 1.3571705854959968e-16 -1.128821248888734e-15 -0.07795126817517627" free_energy=-325.0673182414146 pbc="T T T"
Si       0.00000000       0.00000000       0.00000000       0.00000000       0.00000000       0.00000000
Si       1.46263423       1.46263423       1.46263423      -0.00000000      -0.00000000      -0.00000000
