2
Lattice="3.1136326660775997 -6.4732699864761755e-99 -2.102400770698378e-49 3.655148242714411e-98 3.1136326660775997 5.413234777349914e-49 2.102400770698378e-49 -1.0826469554699828e-48 3.1136326660775997" Properties=species:S:1:pos:R:3:forces:R:3 n_minim_iter=1 energy=-325.1984749654467 stress="0.014817736790244687 -9.194922665962036e-19 -5.516953599577222e-18 -9.194922665962036e-19 0.014817736790245095 -2.229768746495794e-16 -5.516953599577222e-18 -2.229768746495794e-16 0.01481773679024367" free_energy=-325.1984749654467 pbc="T T T"
Si       0.00000000       0.00000000       0.00000000       0.00000000       0.00000000       0.00000000
Si       1.55681633       1.55681633       1.55681633      -0.00000000      -0.00000000      -0.00000000
