2
Lattice="3.3042389732461217 -2.848297696276838e-96 -2.231102801434678e-49 3.878904344803013e-98 3.3042389732461217 5.7446151299483745e-49 2.231102801434678e-49 -2.297846051979352e-48 3.3042389732461217" Properties=species:S:1:pos:R:3:forces:R:3 n_minim_iter=1 energy=-324.92617521054024 stress="0.07766709540112936 5.203272644045703e-18 -2.529968604472788e-16 5.203272644045703e-18 0.07766709540112936 -2.0322215798442655e-16 -2.529968604472788e-16 -2.0322215798442655e-16 0.07766709540112955" free_energy=-324.92617521054024 pbc="T T T"
Si       0.00000000       0.00000000       0.00000000       0.00000000       0.00000000      -0.00000000
Si       1.65211949       1.65211949       1.65211949      -0.00000000      -0.00000000       0.00000000
