2
Lattice="3.035758979036048 4.641315067360616e-97 -2.0498185565415823e-49 7.106220515348799e-97 3.035758979036048 5.277846760797265e-49 2.0498185565415827e-49 -2.1992486872841562e-48 3.035758979036048" Properties=species:S:1:pos:R:3:forces:R:3 n_minim_iter=1 energy=-325.1981796493328 stress="-0.01518152989968712 4.0864947650885503e-16 3.934248064792525e-16 4.0864947650885503e-16 -0.015181529899687844 -6.186532583457533e-17 3.934248064792525e-16 -6.186532583457533e-17 -0.015181529899689069" free_energy=-325.1981796493328 pbc="T T T"
Si       0.00000000       0.00000000       0.00000000       0.00000000       0.00000000       0.00000000
Si       1.51787949       1.51787949       1.51787949      -0.00000000      -0.00000000      -0.00000000
