2
Lattice="3.0088924463328848 -2.8173321239617266e-96 -2.0316776179278186e-49 1.4439879805152839e-96 3.0088924463328848 5.231137702673597e-49 2.0316776179278186e-49 1.5947028278032692e-47 3.0088924463328848" Properties=species:S:1:pos:R:3:forces:R:3 n_minim_iter=1 energy=-325.1547775249281 stress="-0.04362071687713661 -1.1612876687830803e-15 -7.336057218897283e-16 -1.1612876687830803e-15 -0.043620716877136846 -6.836797769277885e-16 -7.336057218897283e-16 -6.836797769277885e-16 -0.04362071687713534" free_energy=-325.1547775249281 pbc="T T T"
Si       0.00000000       0.00000000       0.00000000      -0.00000000      -0.00000000       0.00000000
Si       1.50444622       1.50444622       1.50444622       0.00000000       0.00000000      -0.00000000
