2
Lattice="2.9815373645162 -2.791718596017358e-96 -2.0132067990285666e-49 1.430860090418233e-96 2.9815373645162 5.183579272984499e-49 2.0132067990285666e-49 1.580204726888754e-47 2.9815373645162" Properties=species:S:1:pos:R:3:forces:R:3 n_minim_iter=1 energy=-325.1547775249281 stress="-0.04362071687713661 -1.1612876687830803e-15 -7.336057218897283e-16 -1.1612876687830803e-15 -0.043620716877136846 -6.836797769277885e-16 -7.336057218897283e-16 -6.836797769277885e-16 -0.04362071687713534" free_energy=-325.1547775249281 pbc="T T T"
Si       0.00000000       0.00000000       0.00000000      -0.00000000      -0.00000000       0.00000000
Si       1.49076868       1.49076868       1.49076868       0.00000000       0.00000000      -0.00000000
