4
Lattice="3.779763149684619 0.0 0.0 0.0 3.779763149684619 0.0 0.0 0.0 3.779763149684619" Properties=species:S:1:pos:R:3:forces:R:3 n_minim_iter=1 energy=-650.2551898312275 stress="-0.035989796849985885 2.263362214592824e-16 -7.425168057337352e-16 2.263362214592824e-16 -0.035989796849986044 4.2802491538908804e-16 -7.425168057337352e-16 4.2802491538908804e-16 -0.03598979684998785" free_energy=-650.2551898312275 pbc="T T T"
Si       0.00000000       0.00000000       0.00000000      -0.00000000      -0.00000000      -0.00000000
Si       1.88988157       1.88988157       0.00000000       0.00000000       0.00000000      -0.00000000
Si       1.88988157       0.00000000       1.88988157       0.00000000      -0.00000000       0.00000000
Si       0.00000000       1.88988157       1.88988157      -0.00000000      -0.00000000       0.00000000
