4
Lattice="4.0103896570584014 0.0 0.0 0.0 4.0103896570584014 0.0 0.0 0.0 4.0103896570584014" Properties=species:S:1:pos:R:3:forces:R:3 n_minim_iter=1 energy=-650.2771096861336 stress="0.02549270034905976 -6.784695750049517e-17 -2.5684919625187455e-16 -6.784695750049517e-17 0.02549270034905973 -4.169944498325888e-16 -2.5684919625187455e-16 -4.169944498325888e-16 0.025492700349059743" free_energy=-650.2771096861336 pbc="T T T"
Si       0.00000000       0.00000000       0.00000000       0.00000000       0.00000000       0.00000000
Si       2.00519483       2.00519483       0.00000000       0.00000000       0.00000000       0.00000000
Si       2.00519483       0.00000000       2.00519483      -0.00000000      -0.00000000      -0.00000000
Si       0.00000000       2.00519483       2.00519483      -0.00000000      -0.00000000      -0.00000000
