4
Lattice="3.7084297692661887 0.0 0.0 0.0 3.7084297692661887 0.0 0.0 0.0 3.7084297692661887" Properties=species:S:1:pos:R:3:forces:R:3 n_minim_iter=1 energy=-650.1941089995855 stress="-0.04503016722569165 2.7532950693631315e-16 5.0678703441420957e-17 2.7532950693631315e-16 -0.04503016722569153 -3.681743785467208e-17 5.0678703441420957e-17 -3.681743785467208e-17 -0.045030167225690206" free_energy=-650.1941089995855 pbc="T T T"
Si       0.00000000       0.00000000       0.00000000      -0.00000000      -0.00000000      -0.00000000
Si       1.85421488       1.85421488       0.00000000       0.00000000       0.00000000       0.00000000
Si       1.85421488       0.00000000       1.85421488       0.00000000       0.00000000      -0.00000000
Si       0.00000000       1.85421488       1.85421488      -0.00000000       0.00000000       0.00000000
