4
Lattice="4.0103896570584014 0.0 0.0 0.0 4.0103896570584014 0.0 0.0 0.0 4.0103896570584014" Properties=species:S:1:pos:R:3:forces:R:3 n_minim_iter=1 energy=-650.2333274837869 stress="0.03272353683008739 2.4011798489604407e-16 -7.831805242129036e-17 2.4011798489604407e-16 0.032723536830087704 -1.3275340204378063e-16 -7.831805242129036e-17 -1.3275340204378063e-16 0.03272353683008718" free_energy=-650.2333274837869 pbc="T T T"
Si       0.00000000       0.00000000       0.00000000       0.00000000       0.00000000       0.00000000
Si       2.00519483       2.00519483       0.00000000      -0.00000000      -0.00000000       0.00000000
Si       2.00519483       0.00000000       2.00519483      -0.00000000       0.00000000      -0.00000000
Si       0.00000000       2.00519483       2.00519483       0.00000000      -0.00000000      -0.00000000
