4
Lattice="3.5959831740739054 0.0 0.0 0.0 3.5959831740739054 0.0 0.0 0.0 3.5959831740739054" Properties=species:S:1:pos:R:3:forces:R:3 n_minim_iter=1 energy=-649.6361620648909 stress="-0.2053086114083554 -3.3806586997955656e-16 -1.025165538185634e-15 -3.3806586997955656e-16 -0.20530861140835527 -5.667509045165994e-16 -1.025165538185634e-15 -5.667509045165994e-16 -0.2053086114083628" free_energy=-649.6361620648909 pbc="T T T"
Si       0.00000000       0.00000000       0.00000000       0.00000000      -0.00000000       0.00000000
Si       1.79799159       1.79799159       0.00000000       0.00000000      -0.00000000       0.00000000
Si       1.79799159       0.00000000       1.79799159       0.00000000      -0.00000000      -0.00000000
Si       0.00000000       1.79799159       1.79799159      -0.00000000       0.00000000      -0.00000000
