4
Lattice="3.671710231024981 0.0 0.0 0.0 3.671710231024981 0.0 0.0 0.0 3.671710231024981" Properties=species:S:1:pos:R:3:forces:R:3 n_minim_iter=1 energy=-650.0227427871482 stress="-0.07684646919152673 7.20383294617861e-16 -6.44300781842254e-16 7.20383294617861e-16 -0.07684646919152623 -3.977948422459302e-16 -6.44300781842254e-16 -3.977948422459302e-16 -0.07684646919153064" free_energy=-650.0227427871482 pbc="T T T"
Si       0.00000000       0.00000000       0.00000000      -0.00000000      -0.00000000      -0.00000000
Si       1.83585512       1.83585512       0.00000000       0.00000000       0.00000000      -0.00000000
Si       1.83585512       0.00000000       1.83585512       0.00000000      -0.00000000       0.00000000
Si       0.00000000       1.83585512       1.83585512      -0.00000000       0.00000000      -0.00000000
