4
Lattice="3.947223386484057 0.0 0.0 0.0 3.947223386484057 0.0 0.0 0.0 3.947223386484057" Properties=species:S:1:pos:R:3:forces:R:3 n_minim_iter=1 energy=-650.3093621113837 stress="0.017376846325843767 3.4209308504684275e-16 -2.6175988037885063e-17 3.4209308504684275e-16 0.017376846325843808 1.6743606141474757e-16 -2.6175988037885063e-17 1.6743606141474757e-16 0.01737684632584305" free_energy=-650.3093621113837 pbc="T T T"
Si       0.00000000       0.00000000       0.00000000      -0.00000000      -0.00000000      -0.00000000
Si       1.97361169       1.97361169       0.00000000      -0.00000000       0.00000000      -0.00000000
Si       1.97361169       0.00000000       1.97361169       0.00000000      -0.00000000       0.00000000
Si       0.00000000       1.97361169       1.97361169       0.00000000       0.00000000       0.00000000
