4
Lattice="4.188859364120028 0.0 0.0 0.0 4.188859364120028 0.0 0.0 0.0 4.188859364120028" Properties=species:S:1:pos:R:3:forces:R:3 n_minim_iter=1 energy=-649.8029469011914 stress="0.0600532427528196 7.004978079596577e-17 -1.3915549446530128e-16 7.004978079596577e-17 0.0600532427528194 -1.1498737602356645e-16 -1.3915549446530128e-16 -1.1498737602356645e-16 0.06005324275281937" free_energy=-649.8029469011914 pbc="T T T"
Si       0.00000000       0.00000000       0.00000000       0.00000000       0.00000000       0.00000000
Si       2.09442968       2.09442968       0.00000000      -0.00000000      -0.00000000       0.00000000
Si       2.09442968       0.00000000       2.09442968      -0.00000000       0.00000000      -0.00000000
Si       0.00000000       2.09442968       2.09442968       0.00000000      -0.00000000      -0.00000000
