4
Lattice="3.848501131276804 0.0 0.0 0.0 3.848501131276804 0.0 0.0 0.0 3.848501131276804" Properties=species:S:1:pos:R:3:forces:R:3 n_minim_iter=1 energy=-650.3255645968551 stress="-0.011338098729920469 -2.551565004564079e-16 1.0030961659164127e-16 -2.551565004564079e-16 -0.01133809872992047 -9.738797727343813e-19 1.0030961659164127e-16 -9.738797727343813e-19 -0.011338098729920493" free_energy=-650.3255645968551 pbc="T T T"
Si       0.00000000       0.00000000       0.00000000       0.00000000      -0.00000000       0.00000000
Si       1.92425057       1.92425057       0.00000000       0.00000000       0.00000000      -0.00000000
Si       1.92425057       0.00000000       1.92425057       0.00000000      -0.00000000      -0.00000000
Si       0.00000000       1.92425057       1.92425057      -0.00000000       0.00000000       0.00000000
