4
Lattice="4.160167646103808 0.0 0.0 0.0 4.160167646103808 0.0 0.0 0.0 4.160167646103808" Properties=species:S:1:pos:R:3:forces:R:3 n_minim_iter=1 energy=-649.889995091465 stress="0.05610600854790344 2.8333814637990874e-17 -8.90491317193999e-17 2.8333814637990874e-17 0.05610600854790336 7.825529757159385e-17 -8.90491317193999e-17 7.825529757159385e-17 0.05610600854790338" free_energy=-649.889995091465 pbc="T T T"
Si       0.00000000       0.00000000       0.00000000       0.00000000       0.00000000       0.00000000
Si       2.08008382       2.08008382       0.00000000      -0.00000000      -0.00000000       0.00000000
Si       2.08008382       0.00000000       2.08008382      -0.00000000       0.00000000      -0.00000000
Si       0.00000000       2.08008382       2.08008382       0.00000000      -0.00000000      -0.00000000
