4
Lattice="4.2171633265087465 0.0 0.0 0.0 4.2171633265087465 0.0 0.0 0.0 4.2171633265087465" Properties=species:S:1:pos:R:3:forces:R:3 n_minim_iter=1 energy=-649.7093898244807 stress="0.06489650089713753 -5.551114704585966e-17 4.200343459803381e-17 -5.551114704585966e-17 0.06489650089713757 1.2193948634407172e-16 4.200343459803381e-17 1.2193948634407172e-16 0.06489650089713724" free_energy=-649.7093898244807 pbc="T T T"
Si       0.00000000       0.00000000       0.00000000       0.00000000      -0.00000000       0.00000000
Si       2.10858166       2.10858166       0.00000000      -0.00000000       0.00000000       0.00000000
Si       2.10858166       0.00000000       2.10858166      -0.00000000      -0.00000000      -0.00000000
Si       0.00000000       2.10858166       2.10858166       0.00000000       0.00000000      -0.00000000
