4
Lattice="3.881968038328153 0.0 0.0 0.0 3.881968038328153 0.0 0.0 0.0 3.881968038328153" Properties=species:S:1:pos:R:3:forces:R:3 n_minim_iter=1 energy=-650.3346503660593 stress="-0.0009611905012322607 -1.1861356206380278e-16 -1.6511007839281344e-16 -1.1861356206380278e-16 -0.0009611905012323206 2.2489131367297005e-16 -1.6511007839281344e-16 2.2489131367297005e-16 -0.0009611905012298795" free_energy=-650.3346503660593 pbc="T T T"
Si       0.00000000       0.00000000       0.00000000      -0.00000000       0.00000000      -0.00000000
Si       1.94098402       1.94098402       0.00000000       0.00000000       0.00000000      -0.00000000
Si       1.94098402       0.00000000       1.94098402       0.00000000      -0.00000000       0.00000000
Si       0.00000000       1.94098402       1.94098402      -0.00000000      -0.00000000      -0.00000000
