4
Lattice="4.131074612832676 0.0 0.0 0.0 4.131074612832676 0.0 0.0 0.0 4.131074612832676" Properties=species:S:1:pos:R:3:forces:R:3 n_minim_iter=1 energy=-650.047255410444 stress="0.04860983439335513 -2.9766846966620415e-17 4.062772356254948e-17 -2.9766846966620415e-17 0.04860983439335511 -6.617089629741971e-17 4.062772356254948e-17 -6.617089629741971e-17 0.04860983439335521" free_energy=-650.047255410444 pbc="T T T"
Si       0.00000000       0.00000000       0.00000000      -0.00000000      -0.00000000      -0.00000000
Si       2.06553731       2.06553731       0.00000000       0.00000000       0.00000000      -0.00000000
Si       2.06553731       0.00000000       2.06553731       0.00000000      -0.00000000       0.00000000
Si       0.00000000       2.06553731       2.06553731      -0.00000000       0.00000000       0.00000000
