4
Lattice="4.07162642489236 0.0 0.0 0.0 4.07162642489236 0.0 0.0 0.0 4.07162642489236" Properties=species:S:1:pos:R:3:forces:R:3 n_minim_iter=1 energy=-650.1794402985897 stress="0.0389562976103579 -2.4811800573528202e-17 -1.1648930099775107e-16 -2.4811800573528202e-17 0.038956297610357744 -8.032294761938791e-17 -1.1648930099775107e-16 -8.032294761938791e-17 0.038956297610358105" free_energy=-650.1794402985897 pbc="T T T"
Si       0.00000000       0.00000000       0.00000000      -0.00000000      -0.00000000       0.00000000
Si       2.03581321       2.03581321       0.00000000       0.00000000       0.00000000       0.00000000
Si       2.03581321       0.00000000       2.03581321       0.00000000      -0.00000000      -0.00000000
Si       0.00000000       2.03581321       2.03581321      -0.00000000       0.00000000      -0.00000000
