4
Lattice="4.131074612832676 0.0 0.0 0.0 4.131074612832676 0.0 0.0 0.0 4.131074612832676" Properties=species:S:1:pos:R:3:forces:R:3 n_minim_iter=1 energy=-649.9714095732725 stress="0.05245203956057545 -1.0472315683828841e-16 -1.1456555879677417e-16 -1.0472315683828841e-16 0.05245203956057529 1.2204578428522334e-17 -1.1456555879677417e-16 1.2204578428522334e-17 0.05245203956057556" free_energy=-649.9714095732725 pbc="T T T"
Si       0.00000000       0.00000000       0.00000000       0.00000000       0.00000000       0.00000000
Si       2.06553731       2.06553731       0.00000000      -0.00000000      -0.00000000       0.00000000
Si       2.06553731       0.00000000       2.06553731      -0.00000000       0.00000000      -0.00000000
Si       0.00000000       2.06553731       2.06553731       0.00000000      -0.00000000      -0.00000000
