4
Lattice="3.779763149684619 0.0 0.0 0.0 3.779763149684619 0.0 0.0 0.0 3.779763149684619" Properties=species:S:1:pos:R:3:forces:R:3 n_minim_iter=1 energy=-650.2999008123537 stress="-0.02319429770568104 1.5103032799864517e-16 -6.251255297957169e-16 1.5103032799864517e-16 -0.023194297705681065 -3.850773263541615e-17 -6.251255297957169e-16 -3.850773263541615e-17 -0.023194297705676298" free_energy=-650.2999008123537 pbc="T T T"
Si       0.00000000       0.00000000       0.00000000       0.00000000       0.00000000       0.00000000
Si       1.88988157       1.88988157       0.00000000      -0.00000000      -0.00000000       0.00000000
Si       1.88988157       0.00000000       1.88988157      -0.00000000       0.00000000      -0.00000000
Si       0.00000000       1.88988157       1.88988157       0.00000000      -0.00000000      -0.00000000
