4
Lattice="3.556893304490062 0.0 0.0 0.0 3.556893304490062 0.0 0.0 0.0 3.556893304490062" Properties=species:S:1:pos:R:3:forces:R:3 n_minim_iter=1 energy=-649.2375921996851 stress="-0.3346511069793129 1.247458832225014e-16 3.608224557980881e-17 1.247458832225014e-16 -0.33465110697931233 -2.4147348964948974e-16 3.608224557980881e-17 -2.4147348964948974e-16 -0.3346511069793012" free_energy=-649.2375921996851 pbc="T T T"
Si       0.00000000       0.00000000       0.00000000      -0.00000000      -0.00000000      -0.00000000
Si       1.77844665       1.77844665       0.00000000       0.00000000       0.00000000      -0.00000000
Si       1.77844665       0.00000000       1.77844665       0.00000000      -0.00000000       0.00000000
Si       0.00000000       1.77844665       1.77844665      -0.00000000       0.00000000       0.00000000
