4
Lattice="3.671710231024981 0.0 0.0 0.0 3.671710231024981 0.0 0.0 0.0 3.671710231024981" Properties=species:S:1:pos:R:3:forces:R:3 n_minim_iter=1 energy=-650.1196011686309 stress="-0.05523686824918145 4.1525365252611315e-16 -1.3563155566505241e-15 4.1525365252611315e-16 -0.055236868249180796 -8.730420411924516e-16 -1.3563155566505241e-15 -8.730420411924516e-16 -0.05523686824918694" free_energy=-650.1196011686309 pbc="T T T"
Si       0.00000000       0.00000000       0.00000000       0.00000000       0.00000000       0.00000000
Si       1.83585512       1.83585512       0.00000000      -0.00000000      -0.00000000       0.00000000
Si       1.83585512       0.00000000       1.83585512      -0.00000000       0.00000000       0.00000000
Si       0.00000000       1.83585512       1.83585512       0.00000000      -0.00000000      -0.00000000
