4
Lattice="3.881968038328153 0.0 0.0 0.0 3.881968038328153 0.0 0.0 0.0 3.881968038328153" Properties=species:S:1:pos:R:3:forces:R:3 n_minim_iter=1 energy=-650.3288801839687 stress="0.008537804875359196 1.878127141718253e-16 -2.960594509112517e-17 1.878127141718253e-16 0.008537804875359578 -5.76390743492843e-16 -2.960594509112517e-17 -5.76390743492843e-16 0.008537804875359916" free_energy=-650.3288801839687 pbc="T T T"
Si       0.00000000       0.00000000       0.00000000      -0.00000000       0.00000000      -0.00000000
Si       1.94098402       1.94098402       0.00000000      -0.00000000      -0.00000000      -0.00000000
Si       1.94098402       0.00000000       1.94098402       0.00000000      -0.00000000       0.00000000
Si       0.00000000       1.94098402       1.94098402      -0.00000000       0.00000000       0.00000000
