4
Lattice="4.07162642489236 0.0 0.0 0.0 4.07162642489236 0.0 0.0 0.0 4.07162642489236" Properties=species:S:1:pos:R:3:forces:R:3 n_minim_iter=1 energy=-650.1169545147391 stress="0.044201927122700026 3.125071981840989e-17 -4.975443550036313e-17 3.125071981840989e-17 0.04420192712270008 9.560253102342503e-17 -4.975443550036313e-17 9.560253102342503e-17 0.044201927122700525" free_energy=-650.1169545147391 pbc="T T T"
Si       0.00000000       0.00000000       0.00000000      -0.00000000      -0.00000000      -0.00000000
Si       2.03581321       2.03581321       0.00000000       0.00000000       0.00000000      -0.00000000
Si       2.03581321       0.00000000       2.03581321       0.00000000      -0.00000000       0.00000000
Si       0.00000000       2.03581321       2.03581321      -0.00000000       0.00000000       0.00000000
