4
Lattice="3.6342411856642785 0.0 0.0 0.0 3.6342411856642785 0.0 0.0 0.0 3.6342411856642785" Properties=species:S:1:pos:R:3:forces:R:3 n_minim_iter=1 energy=-649.8769165722314 stress="-0.12272783035736541 5.914683805680599e-16 -9.044052440251559e-17 5.914683805680599e-16 -0.1227278303573638 -1.9914985403399088e-16 -9.044052440251559e-17 -1.9914985403399088e-16 -0.12272783035736118" free_energy=-649.8769165722314 pbc="T T T"
Si       0.00000000       0.00000000       0.00000000      -0.00000000       0.00000000       0.00000000
Si       1.81712059       1.81712059       0.00000000      -0.00000000      -0.00000000       0.00000000
Si       1.81712059       0.00000000       1.81712059      -0.00000000       0.00000000      -0.00000000
Si       0.00000000       1.81712059       1.81712059       0.00000000      -0.00000000       0.00000000
