2
Lattice="3.2788720358204975 -1.772521524729826e-17 2.07771874916644e-49 -1.6394360179102487 2.8395864787789504 -9.070599388875054e-49 -2.068061447166907e-49 9.231147492352604e-49 3.263631735620847" Properties=species:S:1:pos:R:3:forces:R:3 n_minim_iter=1 energy=-325.30790725614236 stress="-0.01413696577849694 2.471505014513121e-16 -1.8441165632506042e-17 2.471505014513121e-16 -0.014136965778498515 -3.378288234244029e-16 -1.8441165632506042e-17 -3.378288234244029e-16 -0.014498914706831529" free_energy=-325.30790725614236 pbc="T T T"
Si       0.00000000       0.00000000       0.00000000       0.00000000      -0.00000000       0.00000000
Si       0.00000000       1.89305765       1.63181587      -0.00000000       0.00000000       0.00000000
