2
Lattice="3.807606693751435 8.406454246973089e-18 3.833654747478002e-49 -1.9038033468757174 3.2974841244084176 -1.185101522838277e-48 -3.3843427540092593e-49 1.0126586538834526e-48 3.3613475842059404" Properties=species:S:1:pos:R:3:forces:R:3 n_minim_iter=1 energy=-325.1309977241308 stress="0.053773862751940384 4.8836324768566543e-17 5.983119883614986e-17 4.8836324768566543e-17 0.053773862751940835 -4.7171070253115096e-17 5.983119883614986e-17 -4.7171070253115096e-17 0.05510723584325042" free_energy=-325.1309977241308 pbc="T T T"
Si      -0.00000000      -0.00000000       0.00000000      -0.00000000       0.00000000       0.00000000
Si       0.00000000       2.19832275       1.68067379       0.00000000      -0.00000000      -0.00000000
