2
Lattice="3.3089551110399373 -1.7887840984972648e-17 2.0967814538811035e-49 -1.6544775555199687 2.8656391861429436 -9.153820545638694e-49 -2.087035547831368e-49 9.315841649776376e-49 3.2935749837618697" Properties=species:S:1:pos:R:3:forces:R:3 n_minim_iter=1 energy=-325.30790725614236 stress="-0.01413696577849694 2.471505014513121e-16 -1.8441165632506042e-17 2.471505014513121e-16 -0.014136965778498515 -3.378288234244029e-16 -1.8441165632506042e-17 -3.378288234244029e-16 -0.014498914706831529" free_energy=-325.30790725614236 pbc="T T T"
Si       0.00000000       0.00000000       0.00000000       0.00000000      -0.00000000       0.00000000
Si       0.00000000       1.91042612       1.64678749      -0.00000000       0.00000000       0.00000000
