2
Lattice="3.3675328164107823 -1.820450550406579e-17 2.133900315307391e-49 -1.6837664082053911 2.9163689670894946 -9.315868619712295e-49 -2.123981879623983e-49 9.480757947861349e-49 3.3518804181184425" Properties=species:S:1:pos:R:3:forces:R:3 n_minim_iter=1 energy=-325.327592482129 stress="-0.008317540832201258 4.5490843419342865e-17 9.833294389863165e-17 4.5490843419342865e-17 -0.008317540832201271 1.9735095117919376e-16 9.833294389863165e-17 1.9735095117919376e-16 -0.004780792276568944" free_energy=-325.327592482129 pbc="T T T"
Si       0.00000000       0.00000000       0.00000000      -0.00000000      -0.00000000      -0.00000000
Si       0.00000000       1.94424598       1.67594021       0.00000000       0.00000000       0.00000000
