2
Lattice="3.085536719797573 -1.6680066167379005e-17 1.9552082008472438e-49 -1.5427683598987865 2.6721531836544052 -8.535760828477663e-49 -1.946120331723903e-49 8.686842378218563e-49 3.0711950482187427" Properties=species:S:1:pos:R:3:forces:R:3 n_minim_iter=1 energy=-325.30206201680653 stress="-0.029909068995854972 -4.0555752210282365e-17 -1.0237587179568575e-15 -4.0555752210282365e-17 -0.029909068995853046 5.113313082728844e-16 -1.0237587179568575e-15 5.113313082728844e-16 -0.04045031303320829" free_energy=-325.30206201680653 pbc="T T T"
Si       0.00000000       0.00000000       0.00000000       0.00000000       0.00000000       0.00000000
Si       0.00000000       1.78143546       1.53559752      -0.00000000      -0.00000000      -0.00000000
