2
Lattice="3.1194464319108897 -1.6863378275816338e-17 1.9766957257847776e-49 -1.5597232159554448 2.7015198557795546 -8.62956790927001e-49 -1.967507981970683e-49 8.782309828769108e-49 3.1049471469251793" Properties=species:S:1:pos:R:3:forces:R:3 n_minim_iter=1 energy=-325.3022960067757 stress="0.015110007552584553 1.127785592502996e-16 -2.5278838793233434e-16 1.127785592502996e-16 0.015110007552583122 -2.4461579586821103e-17 -2.5278838793233434e-16 -2.4461579586821103e-17 0.014604410386515256" free_energy=-325.3022960067757 pbc="T T T"
Si       0.00000000       0.00000000       0.00000000      -0.00000000      -0.00000000      -0.00000000
Si       0.00000000       1.80101324       1.55247357       0.00000000       0.00000000       0.00000000
