2
Lattice="3.2482265790024307 -1.7559549337644644e-17 2.058299680806325e-49 -1.6241132895012154 2.813046734663926 -8.985822472042373e-49 -2.0487326392464123e-49 9.144870038164826e-49 3.2331287198485317" Properties=species:S:1:pos:R:3:forces:R:3 n_minim_iter=1 energy=-325.2962792983004 stress="-0.012080337445580763 -1.2045697798943664e-16 6.37108945195314e-17 -1.2045697798943664e-16 -0.012080337445579572 3.7758410067399705e-16 6.37108945195314e-17 3.7758410067399705e-16 -0.013706102150980878" free_energy=-325.2962792983004 pbc="T T T"
Si       0.00000000       0.00000000       0.00000000       0.00000000      -0.00000000       0.00000000
Si      -0.00000000       1.87536449       1.61656436      -0.00000000       0.00000000      -0.00000000
