2
Lattice="3.185138201357499 -1.7218500629081848e-17 2.018322547311829e-49 -1.5925691006787495 2.7584105969398687 -8.811296173528856e-49 -2.0089413207239338e-49 8.967254653138722e-49 3.170333578964267" Properties=species:S:1:pos:R:3:forces:R:3 n_minim_iter=1 energy=-325.2853723074507 stress="0.0024516571105155033 3.9060702123834176e-16 5.773875374293779e-16 3.9060702123834176e-16 0.0024516571105164934 4.120051774621692e-16 5.773875374293779e-16 4.120051774621692e-16 0.0003049957150370149" free_energy=-325.2853723074507 pbc="T T T"
Si       0.00000000       0.00000000       0.00000000       0.00000000       0.00000000       0.00000000
Si       0.00000000       1.83894040       1.58516679      -0.00000000      -0.00000000      -0.00000000
