2
Lattice="3.6034101302728527 -3.202072486115146e-19 3.5848377858197324e-49 -1.8017050651364264 3.120644713070483 -1.130190899339843e-48 -3.3603809916071834e-49 1.0293086199233364e-48 3.377790469245674" Properties=species:S:1:pos:R:3:forces:R:3 n_minim_iter=1 energy=-325.29242260128694 stress="0.024447040310503154 -1.1015118548437332e-16 1.064962166455512e-17 -1.1015118548437332e-16 0.0244470403105031 1.932112281378608e-16 1.064962166455512e-17 1.932112281378608e-16 0.02453615862240041" free_energy=-325.29242260128694 pbc="T T T"
Si       0.00000000       0.00000000       0.00000000      -0.00000000      -0.00000000       0.00000000
Si       0.00000000       2.08042981       1.68889523       0.00000000       0.00000000      -0.00000000
