2
Lattice="3.338500916444979 -1.804756230216278e-17 2.1155037075032747e-49 -1.6692504582224894 2.891226604198981 -9.235555411020148e-49 -2.1056707798307093e-49 9.399023208707224e-49 3.322983459335465" Properties=species:S:1:pos:R:3:forces:R:3 n_minim_iter=1 energy=-325.3192877290988 stress="-0.012607448994060829 1.7017515246664323e-16 -0.0 1.7017515246664323e-16 -0.01260744899406158 -2.9205333650719014e-17 -0.0 -2.9205333650719014e-17 -0.011216087455926643" free_energy=-325.3192877290988 pbc="T T T"
Si       0.00000000       0.00000000       0.00000000       0.00000000      -0.00000000      -0.00000000
Si       0.00000000       1.92748440       1.66149173      -0.00000000       0.00000000       0.00000000
