2
Lattice="3.5765180076801966 -3.178175532192596e-19 3.558084267978079e-49 -1.7882590038400983 3.0973554517435575 -1.1217563245566916e-48 -3.3353025868968404e-49 1.0216269260300687e-48 3.352582138218314" Properties=species:S:1:pos:R:3:forces:R:3 n_minim_iter=1 energy=-325.29242260128694 stress="0.024447040310503154 -1.1015118548437332e-16 1.064962166455512e-17 -1.1015118548437332e-16 0.0244470403105031 1.932112281378608e-16 1.064962166455512e-17 1.932112281378608e-16 0.02453615862240041" free_energy=-325.29242260128694 pbc="T T T"
Si       0.00000000       0.00000000       0.00000000      -0.00000000      -0.00000000       0.00000000
Si       0.00000000       2.06490363       1.67629107       0.00000000       0.00000000      -0.00000000
