2
Lattice="3.5765180076801975 -3.178175532192598e-19 3.5580842679780805e-49 -1.7882590038400987 3.0973554517435584 -1.121756324556692e-48 -9.68249737892329e-50 1.0216980078955857e-48 3.3525821382183145" Properties=species:S:1:pos:R:3:forces:R:3 n_minim_iter=2 energy=-325.30983940499095 stress="0.018201592477431337 -1.066667583225537e-16 5.725855336413995e-17 -1.066667583225537e-16 0.018201592477431135 -2.006439123728377e-16 5.725855336413995e-17 -2.006439123728377e-16 0.013879936955267923" free_energy=-325.30983940499095 pbc="T T T"
Si       0.00000000       0.00000000      -0.00000000       0.00000000      -0.00000000      -0.00000000
Si      -0.00000000       2.06490363       1.67629107      -0.00000000       0.00000000       0.00000000
