2
Lattice="3.185138201357499 -1.7218500629081854e-17 2.018322547311829e-49 -1.5925691006787495 2.7584105969398687 -8.811296173528856e-49 -2.008941320723933e-49 8.967254653138723e-49 3.170333578964267" Properties=species:S:1:pos:R:3:forces:R:3 n_minim_iter=1 energy=-325.2907869831004 stress="0.011260797191282576 2.817478854412123e-16 1.1419383791887862e-15 2.817478854412123e-16 0.01126079719127955 9.202269574003875e-16 1.1419383791887862e-15 9.202269574003875e-16 0.009887094686492362" free_energy=-325.2907869831004 pbc="T T T"
Si       0.00000000       0.00000000       0.00000000      -0.00000000       0.00000000      -0.00000000
Si       0.00000000       1.83894040       1.58516679       0.00000000      -0.00000000       0.00000000
