2
Lattice="3.3960725908548515 -1.8358788330478036e-17 2.1519850785465844e-49 -1.6980362954274257 2.941085136776337 -9.394820423199265e-49 -2.1419825843156658e-49 9.561107185164164e-49 3.3802875387945694" Properties=species:S:1:pos:R:3:forces:R:3 n_minim_iter=1 energy=-325.3308189949011 stress="-0.002294803569850915 2.890111142519065e-18 4.9920568641271525e-16 2.890111142519065e-18 -0.00229480356985004 3.514118250534959e-16 4.9920568641271525e-16 3.514118250534959e-16 0.0037416347488715904" free_energy=-325.3308189949011 pbc="T T T"
Si       0.00000000       0.00000000       0.00000000      -0.00000000      -0.00000000       0.00000000
Si       0.00000000       1.96072342       1.69014377       0.00000000       0.00000000      -0.00000000
