2
Lattice="3.782051516418478 8.350033390959956e-18 3.807924745724957e-49 -1.891025758209239 3.2753526916398608 -1.1771475816858492e-48 -3.3616283598529125e-49 1.005862082294214e-48 3.3387875246984664" Properties=species:S:1:pos:R:3:forces:R:3 n_minim_iter=1 energy=-325.1309977241308 stress="0.053773862751940384 4.8836324768566543e-17 5.983119883614986e-17 4.8836324768566543e-17 0.053773862751940835 -4.7171070253115096e-17 5.983119883614986e-17 -4.7171070253115096e-17 0.05510723584325042" free_energy=-325.1309977241308 pbc="T T T"
Si      -0.00000000       0.00000000       0.00000000      -0.00000000       0.00000000       0.00000000
Si       0.00000000       2.18356846       1.66939376       0.00000000      -0.00000000      -0.00000000
