2
Lattice="3.4517558088236506 -1.8659805574632916e-17 2.1872697937546745e-49 -1.7258779044118253 2.9893082181017836 -9.548861251069513e-49 -2.177103295059307e-49 9.717874510117174e-49 3.4357119394174473" Properties=species:S:1:pos:R:3:forces:R:3 n_minim_iter=1 energy=-325.3278167936895 stress="0.004520635509095722 7.904336490596866e-17 -4.280810693916591e-17 7.904336490596866e-17 0.004520635509095776 1.30880523674663e-16 -4.280810693916591e-17 1.30880523674663e-16 0.013401078578589184" free_energy=-325.3278167936895 pbc="T T T"
Si       0.00000000       0.00000000       0.00000000      -0.00000000      -0.00000000      -0.00000000
Si       0.00000000       1.99287215       1.71785597       0.00000000       0.00000000       0.00000000
