2
Lattice="3.3385009164449797 -1.804756230216279e-17 2.1155037075032755e-49 -1.6692504582224899 2.891226604198981 -9.23555541102015e-49 -2.1056707798307093e-49 9.399023208707223e-49 3.322983459335465" Properties=species:S:1:pos:R:3:forces:R:3 n_minim_iter=1 energy=-325.327592482129 stress="-0.008317540832201258 4.5490843419342865e-17 9.833294389863165e-17 4.5490843419342865e-17 -0.008317540832201271 1.9735095117919376e-16 9.833294389863165e-17 1.9735095117919376e-16 -0.004780792276568944" free_energy=-325.327592482129 pbc="T T T"
Si       0.00000000       0.00000000       0.00000000      -0.00000000      -0.00000000      -0.00000000
Si       0.00000000       1.92748440       1.66149173       0.00000000       0.00000000       0.00000000
