2
Lattice="3.8076066937514352 8.40645424697309e-18 3.833654747478002e-49 -1.9038033468757176 3.297484124408418 -1.1851015228382769e-48 -3.3843427540092597e-49 1.0126586538834527e-48 3.3613475842059413" Properties=species:S:1:pos:R:3:forces:R:3 n_minim_iter=1 energy=-325.0815631142899 stress="0.061988746878837236 3.358180698223043e-17 4.336451207619719e-18 3.358180698223043e-17 0.06198874687883762 -3.219455363382128e-17 4.336451207619719e-18 -3.219455363382128e-17 0.06483537190332457" free_energy=-325.0815631142899 pbc="T T T"
Si       0.00000000       0.00000000       0.00000000       0.00000000       0.00000000       0.00000000
Si       0.00000000       2.19832275       1.68067379      -0.00000000      -0.00000000      -0.00000000
