2
Lattice="3.45175580882365 -1.865980557463291e-17 2.187269793754674e-49 -1.725877904411825 2.989308218101783 -9.54886125106951e-49 -2.177103295059305e-49 9.717874510117166e-49 3.4357119394174465" Properties=species:S:1:pos:R:3:forces:R:3 n_minim_iter=1 energy=-325.3181324878529 stress="0.011450000878468505 4.0195482271035044e-17 -3.2907508882016063e-17 4.0195482271035044e-17 0.011450000878469575 2.7696133869473744e-17 -3.2907508882016063e-17 2.7696133869473744e-17 0.023482563733063528" free_energy=-325.3181324878529 pbc="T T T"
Si       0.00000000       0.00000000       0.00000000      -0.00000000       0.00000000      -0.00000000
Si       0.00000000       1.99287215       1.71785597       0.00000000      -0.00000000       0.00000000
