2
Lattice="3.2169916964944587 -1.7390697058681176e-17 2.0385071118052044e-49 -1.6084958482472294 2.7859965329278 -8.899414980962137e-49 -2.0290320667276205e-49 9.056933148835985e-49 3.20203901805543" Properties=species:S:1:pos:R:3:forces:R:3 n_minim_iter=1 energy=-325.2877359273697 stress="-0.006232817345706224 3.170277599179263e-16 -5.355238322747708e-17 3.170277599179263e-16 -0.006232817345707586 -1.8414503706290364e-16 -5.355238322747708e-17 -1.8414503706290364e-16 -0.008489651620052331" free_energy=-325.2877359273697 pbc="T T T"
Si       0.00000000       0.00000000       0.00000000       0.00000000       0.00000000      -0.00000000
Si       0.00000000       1.85733102       1.60101951      -0.00000000      -0.00000000       0.00000000
