2
Lattice="3.4789361075097345 -1.8806739227252915e-17 2.2044930996876516e-49 -1.7394680537548672 3.012847047246381 -9.624052230759495e-49 -2.194246546525386e-49 9.794396357666076e-49 3.462765903221606" Properties=species:S:1:pos:R:3:forces:R:3 n_minim_iter=1 energy=-325.3181324878529 stress="0.011450000878468505 4.0195482271035044e-17 -3.2907508882016063e-17 4.0195482271035044e-17 0.011450000878469575 2.7696133869473744e-17 -3.2907508882016063e-17 2.7696133869473744e-17 0.023482563733063528" free_energy=-325.3181324878529 pbc="T T T"
Si       0.00000000       0.00000000       0.00000000      -0.00000000       0.00000000      -0.00000000
Si       0.00000000       2.00856470       1.73138295       0.00000000      -0.00000000       0.00000000
