2
Lattice="3.756146240972524 8.292839586476679e-18 3.781842250817831e-49 -1.878073120486262 3.2529180650116314 -1.1690846739724746e-48 -3.2565933010764564e-49 1.0226464986909497e-48 3.3159183992760988" Properties=species:S:1:pos:R:3:forces:R:3 n_minim_iter=2 energy=-325.1732404209002 stress="0.04649748215839567 2.4726506441552018e-18 -7.706963046717512e-18 2.4726506441552018e-18 0.04649748215839502 -4.339448359915666e-17 -7.706963046717512e-18 -4.339448359915666e-17 0.04511655266539121" free_energy=-325.1732404209002 pbc="T T T"
Si      -0.00000000       0.00000000      -0.00000000       0.00000000      -0.00000000       0.00000000
Si       0.00000000       2.16861204       1.65795920      -0.00000000       0.00000000       0.00000000
