2
Lattice="3.6034101302728523 -3.2020724861151464e-19 3.584837785819733e-49 -1.8017050651364261 3.1206447130704835 -1.1301908993398431e-48 -3.360380991607183e-49 1.0293086199233367e-48 3.3777904692456744" Properties=species:S:1:pos:R:3:forces:R:3 n_minim_iter=1 energy=-325.2685933102683 stress="0.03045738854048821 5.1750829643329035e-17 -1.758329346954809e-17 5.1750829643329035e-17 0.030457388540488115 1.1448550884360955e-16 -1.758329346954809e-17 1.1448550884360955e-16 0.03488379139664713" free_energy=-325.2685933102683 pbc="T T T"
Si       0.00000000       0.00000000       0.00000000      -0.00000000       0.00000000       0.00000000
Si       0.00000000       2.08042981       1.68889523       0.00000000      -0.00000000      -0.00000000
