2
Lattice="3.681769562147424 -3.2717044657572133e-19 3.662793345165974e-49 -1.840884781073712 3.188505971699979 -1.1547679287592994e-48 -3.433455533739447e-49 1.051691872388325e-48 3.4512435963093413" Properties=species:S:1:pos:R:3:forces:R:3 n_minim_iter=1 energy=-325.2027785034337 stress="0.04174983601338664 5.61651764443587e-17 8.832944881911701e-18 5.61651764443587e-17 0.041749836013386034 -6.732934099962149e-17 8.832944881911701e-18 -6.732934099962149e-17 0.05393443243430314" free_energy=-325.2027785034337 pbc="T T T"
Si       0.00000000       0.00000000       0.00000000      -0.00000000       0.00000000      -0.00000000
Si       0.00000000       2.12567065       1.72562180       0.00000000      -0.00000000       0.00000000
