2
Lattice="3.1526345231700583 -1.7042789382681495e-17 1.997725982136629e-49 -1.5763172615850292 2.730261585913111 -8.721378714023788e-49 -1.9884404890305286e-49 8.875745669526574e-49 3.137980978893861" Properties=species:S:1:pos:R:3:forces:R:3 n_minim_iter=1 energy=-325.2907869831004 stress="0.011260797191282576 2.817478854412123e-16 1.1419383791887862e-15 2.817478854412123e-16 0.01126079719127955 9.202269574003875e-16 1.1419383791887862e-15 9.202269574003875e-16 0.009887094686492362" free_energy=-325.2907869831004 pbc="T T T"
Si       0.00000000       0.00000000       0.00000000      -0.00000000       0.00000000      -0.00000000
Si       0.00000000       1.82017439       1.56899049       0.00000000      -0.00000000       0.00000000
