2
Lattice="3.085536719797573 -1.6680066167379005e-17 1.9552082008472438e-49 -1.5427683598987865 2.6721531836544052 -8.53576082847766e-49 -1.946120331723903e-49 8.686842378218562e-49 3.0711950482187427" Properties=species:S:1:pos:R:3:forces:R:3 n_minim_iter=1 energy=-325.31189231470773 stress="0.00523033259375315 4.961626790678181e-16 -6.364459806321558e-17 4.961626790678181e-16 0.005230332593750606 -4.080215403958962e-16 -6.364459806321558e-17 -4.080215403958962e-16 0.002713250941262494" free_energy=-325.31189231470773 pbc="T T T"
Si       0.00000000       0.00000000       0.00000000      -0.00000000      -0.00000000      -0.00000000
Si      -0.00000000       1.78143546       1.53559752       0.00000000       0.00000000       0.00000000
