2
Lattice="3.7820515164184783 8.35003339095996e-18 3.807924745724957e-49 -1.8910257582092391 3.275352691639861 -1.1771475816858493e-48 -3.2790532749612837e-49 1.0296994560394823e-48 3.3387875246984664" Properties=species:S:1:pos:R:3:forces:R:3 n_minim_iter=2 energy=-325.1732404209002 stress="0.04649748215839567 2.4726506441552018e-18 -7.706963046717512e-18 2.4726506441552018e-18 0.04649748215839502 -4.339448359915666e-17 -7.706963046717512e-18 -4.339448359915666e-17 0.04511655266539121" free_energy=-325.1732404209002 pbc="T T T"
Si      -0.00000000       0.00000000      -0.00000000       0.00000000      -0.00000000       0.00000000
Si       0.00000000       2.18356846       1.66939376      -0.00000000       0.00000000       0.00000000
