2
Lattice="3.3089551110399373 -1.7887840984972645e-17 2.096781453881103e-49 -1.6544775555199687 2.8656391861429436 -9.153820545638697e-49 -2.0870355478313697e-49 9.315841649776384e-49 3.2935749837618697" Properties=species:S:1:pos:R:3:forces:R:3 n_minim_iter=1 energy=-325.3192877290988 stress="-0.012607448994060829 1.7017515246664323e-16 -0.0 1.7017515246664323e-16 -0.01260744899406158 -2.9205333650719014e-17 -0.0 -2.9205333650719014e-17 -0.011216087455926643" free_energy=-325.3192877290988 pbc="T T T"
Si       0.00000000       0.00000000       0.00000000       0.00000000      -0.00000000      -0.00000000
Si       0.00000000       1.91042612       1.64678749      -0.00000000       0.00000000       0.00000000
