2
Lattice="3.6560220794784235 -3.2488246649961243e-19 3.6371785676567075e-49 -1.8280110397392118 3.1662079976251243 -1.1466923643518658e-48 -3.4094445696208296e-49 1.0443371431472978e-48 3.4271082360749414" Properties=species:S:1:pos:R:3:forces:R:3 n_minim_iter=1 energy=-325.2386132209895 stress="0.03620706151537629 -2.8294467323053226e-17 6.436849951862639e-17 -2.8294467323053226e-17 0.03620706151537623 6.766629783680515e-18 6.436849951862639e-17 6.766629783680515e-18 0.04471913606057133" free_energy=-325.2386132209895 pbc="T T T"
Si       0.00000000       0.00000000       0.00000000       0.00000000       0.00000000      -0.00000000
Si       0.00000000       2.11080533       1.71355412      -0.00000000      -0.00000000       0.00000000
