2
Lattice="3.424140579326819 -1.851052073472839e-17 2.169770885757875e-49 -1.7120702896634095 2.96539272782619 -9.472467088363215e-49 -2.159685722536452e-49 9.640128183412287e-49 3.4082250663746083" Properties=species:S:1:pos:R:3:forces:R:3 n_minim_iter=1 energy=-325.3278167936895 stress="0.004520635509095722 7.904336490596866e-17 -4.280810693916591e-17 7.904336490596866e-17 0.004520635509095776 1.30880523674663e-16 -4.280810693916591e-17 1.30880523674663e-16 0.013401078578589184" free_energy=-325.3278167936895 pbc="T T T"
Si       0.00000000       0.00000000       0.00000000      -0.00000000      -0.00000000      -0.00000000
Si       0.00000000       1.97692849       1.70411253       0.00000000       0.00000000       0.00000000
