2
Lattice="3.6560220794784226 -3.2488246649961233e-19 3.6371785676567075e-49 -1.8280110397392113 3.1662079976251243 -1.1466923643518662e-48 -3.4094445696208285e-49 1.0443371431472983e-48 3.4271082360749414" Properties=species:S:1:pos:R:3:forces:R:3 n_minim_iter=1 energy=-325.2027785034337 stress="0.04174983601338664 5.61651764443587e-17 8.832944881911701e-18 5.61651764443587e-17 0.041749836013386034 -6.732934099962149e-17 8.832944881911701e-18 -6.732934099962149e-17 0.05393443243430314" free_energy=-325.2027785034337 pbc="T T T"
Si       0.00000000       0.00000000       0.00000000      -0.00000000       0.00000000      -0.00000000
Si       0.00000000       2.11080533       1.71355412       0.00000000      -0.00000000       0.00000000
