2
Lattice="3.278872035820497 -1.772521524729826e-17 2.0777187491664394e-49 -1.6394360179102485 2.8395864787789504 -9.070599388875051e-49 -2.0680614471669087e-49 9.231147492352605e-49 3.263631735620848" Properties=species:S:1:pos:R:3:forces:R:3 n_minim_iter=1 energy=-325.2962792983004 stress="-0.012080337445580763 -1.2045697798943664e-16 6.37108945195314e-17 -1.2045697798943664e-16 -0.012080337445579572 3.7758410067399705e-16 6.37108945195314e-17 3.7758410067399705e-16 -0.013706102150980878" free_energy=-325.2962792983004 pbc="T T T"
Si       0.00000000       0.00000000       0.00000000       0.00000000      -0.00000000       0.00000000
Si       0.00000000       1.89305765       1.63181587      -0.00000000       0.00000000      -0.00000000
