2
Lattice="3.367532816410782 -1.8204505504065788e-17 2.1339003153073915e-49 -1.683766408205391 2.916368967089495 -9.315868619712298e-49 -2.1239818796239836e-49 9.480757947861357e-49 3.351880418118444" Properties=species:S:1:pos:R:3:forces:R:3 n_minim_iter=1 energy=-325.3308189949011 stress="-0.002294803569850915 2.890111142519065e-18 4.9920568641271525e-16 2.890111142519065e-18 -0.00229480356985004 3.514118250534959e-16 4.9920568641271525e-16 3.514118250534959e-16 0.0037416347488715904" free_energy=-325.3308189949011 pbc="T T T"
Si       0.00000000       0.00000000       0.00000000      -0.00000000      -0.00000000       0.00000000
Si       0.00000000       1.94424598       1.67594021       0.00000000       0.00000000      -0.00000000
