2
Lattice="3.2169916964944583 -1.7390697058681176e-17 2.038507111805204e-49 -1.6084958482472291 2.7859965329277996 -8.899414980962138e-49 -2.0290320667276217e-49 9.056933148835985e-49 3.20203901805543" Properties=species:S:1:pos:R:3:forces:R:3 n_minim_iter=1 energy=-325.2853723074507 stress="0.0024516571105155033 3.9060702123834176e-16 5.773875374293779e-16 3.9060702123834176e-16 0.0024516571105164934 4.120051774621692e-16 5.773875374293779e-16 4.120051774621692e-16 0.0003049957150370149" free_energy=-325.2853723074507 pbc="T T T"
Si       0.00000000       0.00000000       0.00000000       0.00000000       0.00000000       0.00000000
Si       0.00000000       1.85733102       1.60101951      -0.00000000      -0.00000000      -0.00000000
