2
Lattice="3.4789361075097345 -1.8806739227252906e-17 2.204493099687652e-49 -1.7394680537548672 3.0128470472463804 -9.624052230759493e-49 -2.194246546525387e-49 9.794396357666078e-49 3.462765903221606" Properties=species:S:1:pos:R:3:forces:R:3 n_minim_iter=1 energy=-325.3017305989443 stress="0.018384761339824612 -4.5623615619266274e-17 -4.956353909733991e-17 -4.5623615619266274e-17 0.018384761339824085 8.491400448294264e-17 -4.956353909733991e-17 8.491400448294264e-17 0.033530529179897385" free_energy=-325.3017305989443 pbc="T T T"
Si       0.00000000       0.00000000       0.00000000      -0.00000000      -0.00000000       0.00000000
Si       0.00000000       2.00856470       1.73138295       0.00000000      -0.00000000      -0.00000000
2
Lattice="3.5492152787488975 -3.153913704105836e-19 3.530922260104859e-49 -1.7746076393744488 3.0737105948964123 -1.1131929652249133e-48 -9.608582302654394e-50 1.0138984822957368e-48 3.3269889100720755" Properties=species:S:1:pos:R:3:forces:R:3 n_minim_iter=2 energy=-325.30983940499095 stress="0.018201592477431337 -1.066667583225537e-16 5.725855336413995e-17 -1.066667583225537e-16 0.018201592477431135 -2.006439123728377e-16 5.725855336413995e-17 -2.006439123728377e-16 0.013879936955267923" free_energy=-325.30983940499095 pbc="T T T"
Si       0.00000000       0.00000000      -0.00000000       0.00000000      -0.00000000      -0.00000000
Si       0.00000000       2.04914040       1.66349446      -0.00000000       0.00000000       0.00000000
