2
Lattice="3.2482265790024307 -1.755954933764464e-17 2.0582996808063256e-49 -1.6241132895012154 2.813046734663926 -8.985822472042373e-49 -2.0487326392464138e-49 9.14487003816483e-49 3.2331287198485334" Properties=species:S:1:pos:R:3:forces:R:3 n_minim_iter=1 energy=-325.2877359273697 stress="-0.006232817345706224 3.170277599179263e-16 -5.355238322747708e-17 3.170277599179263e-16 -0.006232817345707586 -1.8414503706290364e-16 -5.355238322747708e-17 -1.8414503706290364e-16 -0.008489651620052331" free_energy=-325.2877359273697 pbc="T T T"
Si       0.00000000       0.00000000       0.00000000       0.00000000       0.00000000      -0.00000000
Si       0.00000000       1.87536449       1.61656436      -0.00000000      -0.00000000       0.00000000
