2
Lattice="3.6299067445663677 -3.2256179823359847e-19 3.611197833852482e-49 -1.8149533722831839 3.1435914541629457 -1.1385014249961556e-48 -3.3850905627619752e-49 1.0368773374728525e-48 3.402628055862865" Properties=species:S:1:pos:R:3:forces:R:3 n_minim_iter=1 energy=-325.2685933102683 stress="0.03045738854048821 5.1750829643329035e-17 -1.758329346954809e-17 5.1750829643329035e-17 0.030457388540488115 1.1448550884360955e-16 -1.758329346954809e-17 1.1448550884360955e-16 0.03488379139664713" free_energy=-325.2685933102683 pbc="T T T"
Si       0.00000000       0.00000000       0.00000000      -0.00000000       0.00000000       0.00000000
Si       0.00000000       2.09572764       1.70131403       0.00000000      -0.00000000      -0.00000000
