2
Lattice="3.11944643191089 -1.6863378275816338e-17 1.9766957257847776e-49 -1.559723215955445 2.7015198557795546 -8.629567909270008e-49 -1.9675079819706837e-49 8.782309828769103e-49 3.1049471469251793" Properties=species:S:1:pos:R:3:forces:R:3 n_minim_iter=1 energy=-325.31189231470773 stress="0.00523033259375315 4.961626790678181e-16 -6.364459806321558e-17 4.961626790678181e-16 0.005230332593750606 -4.080215403958962e-16 -6.364459806321558e-17 -4.080215403958962e-16 0.002713250941262494" free_energy=-325.31189231470773 pbc="T T T"
Si       0.00000000       0.00000000       0.00000000      -0.00000000      -0.00000000      -0.00000000
Si       0.00000000       1.80101324       1.55247357       0.00000000       0.00000000       0.00000000
