2
Lattice="3.1526345231700583 -1.704278938268149e-17 1.997725982136629e-49 -1.5763172615850292 2.730261585913111 -8.72137871402379e-49 -1.9884404890305286e-49 8.875745669526578e-49 3.137980978893861" Properties=species:S:1:pos:R:3:forces:R:3 n_minim_iter=1 energy=-325.3022960067757 stress="0.015110007552584553 1.127785592502996e-16 -2.5278838793233434e-16 1.127785592502996e-16 0.015110007552583122 -2.4461579586821103e-17 -2.5278838793233434e-16 -2.4461579586821103e-17 0.014604410386515256" free_energy=-325.3022960067757 pbc="T T T"
Si       0.00000000       0.00000000       0.00000000      -0.00000000      -0.00000000      -0.00000000
Si       0.00000000       1.82017439       1.56899049       0.00000000       0.00000000       0.00000000
