2
Lattice="3.6299067445663673 -3.2256179823359837e-19 3.61119783385248e-49 -1.8149533722831837 3.1435914541629453 -1.1385014249961553e-48 -3.3850905627619756e-49 1.0368773374728522e-48 3.402628055862865" Properties=species:S:1:pos:R:3:forces:R:3 n_minim_iter=1 energy=-325.2386132209895 stress="0.03620706151537629 -2.8294467323053226e-17 6.436849951862639e-17 -2.8294467323053226e-17 0.03620706151537623 6.766629783680515e-18 6.436849951862639e-17 6.766629783680515e-18 0.04471913606057133" free_energy=-325.2386132209895 pbc="T T T"
Si       0.00000000       0.00000000       0.00000000       0.00000000       0.00000000      -0.00000000
Si       0.00000000       2.09572764       1.70131403      -0.00000000      -0.00000000       0.00000000
