1
Lattice="2.4319469346032996 -1.0688712091140505e-17 -4.051332690685937e-48 1.2159734673016498 2.106127826022151 -4.769210787931985e-48 2.2335059503867973e-47 2.792419748197014e-48 2.3069684618406536" Properties=species:S:1:pos:R:3:forces:R:3 cutoff=-1.0 nneightol=1.2 n_minim_iter=2 energy=-162.56185767926993 stress="-0.22351829834491216 1.5587340228806375e-16 -4.915132101346244e-16 1.5587340228806375e-16 -0.22351829834491538 3.4701742845152884e-16 -4.915132101346244e-16 3.4701742845152884e-16 -0.22326426105025243" free_energy=-162.56185767926993 pbc="T T T"
Si       0.00000000       0.00000000       0.00000000      -0.00000000       0.00000000       0.00000000
