1
Lattice="2.592967663848042 9.60038656077379e-18 2.234866547837496e-50 1.296483831924021 2.2455758680839932 6.529338901991657e-50 -3.936738360949953e-50 -4.924732126387453e-49 2.422120105281804" Properties=species:S:1:pos:R:3:forces:R:3 cutoff=-1.0 nneightol=1.2 n_minim_iter=1 energy=-162.80906679539763 stress="-0.05247424078120677 -2.0270614872418933e-16 -2.890530640181098e-17 -2.0270614872418933e-16 -0.05247424078120866 -1.0086106914674469e-17 -2.890530640181098e-17 -1.0086106914674469e-17 -0.057470542388497206" free_energy=-162.80906679539763 pbc="T T T"
Si       0.00000000       0.00000000       0.00000000       0.00000000       0.00000000       0.00000000
