1
Lattice="2.767795702961578 1.0247682236903123e-17 2.3855500066736313e-50 1.3838978514807891 2.3969813912501343 6.96957251263719e-50 -4.202168685339939e-50 -5.25677686139122e-49 2.5854289326180724" Properties=species:S:1:pos:R:3:forces:R:3 cutoff=-1.0 nneightol=1.2 n_minim_iter=1 energy=-162.78738253111405 stress="0.05107494530571662 6.712925448074451e-16 -5.17164572953098e-18 6.712925448074451e-16 0.05107494530571657 3.392599598572323e-17 -5.17164572953098e-18 3.392599598572323e-17 0.060297021781804676" free_energy=-162.78738253111405 pbc="T T T"
Si       0.00000000       0.00000000       0.00000000      -0.00000000       0.00000000       0.00000000
