1
Lattice="2.4578206524454833 -1.0802430329317285e-17 -4.094435209672734e-48 1.2289103262227417 2.1285351229638327 -4.8199508811885756e-48 2.257268435471026e-47 2.8221285710474506e-48 2.3315125216649766" Properties=species:S:1:pos:R:3:forces:R:3 cutoff=-1.0 nneightol=1.2 n_minim_iter=2 energy=-162.56185767926993 stress="-0.22351829834491216 1.5587340228806375e-16 -4.915132101346244e-16 1.5587340228806375e-16 -0.22351829834491538 3.4701742845152884e-16 -4.915132101346244e-16 3.4701742845152884e-16 -0.22326426105025243" free_energy=-162.56185767926993 pbc="T T T"
Si       0.00000000       0.00000000       0.00000000      -0.00000000       0.00000000       0.00000000
