1
Lattice="2.7881478728598927 1.0323035547744035e-17 2.4030914455106085e-50 1.3940739364299464 2.4146068874042124 7.020821209838374e-50 -1.3212086515670502e-49 -7.806142745970795e-49 2.604440122222984" Properties=species:S:1:pos:R:3:forces:R:3 cutoff=-1.0 nneightol=1.2 n_minim_iter=1 energy=-162.7398110403168 stress="0.06598183670449365 -1.8445349056858713e-17 -1.2366978918443653e-20 -1.8445349056858713e-17 0.06598183670449441 1.2250729316610285e-16 -1.2366978918443653e-20 1.2250729316610285e-16 0.07689215459570557" free_energy=-162.7398110403168 pbc="T T T"
Si       0.00000000       0.00000000       0.00000000      -0.00000000       0.00000000       0.00000000
