1
Lattice="2.5693939257175784 9.513105488244315e-18 2.21454845460024e-50 1.2846969628587892 2.2251604120008497 6.469977989942264e-50 -3.900947849366225e-50 -4.8799593561255e-49 2.4000996127478906" Properties=species:S:1:pos:R:3:forces:R:3 cutoff=-1.0 nneightol=1.2 n_minim_iter=1 energy=-162.80906679539763 stress="-0.05247424078120677 -2.0270614872418933e-16 -2.890530640181098e-17 -2.0270614872418933e-16 -0.05247424078120866 -1.0086106914674469e-17 -2.890530640181098e-17 -1.0086106914674469e-17 -0.057470542388497206" free_energy=-162.80906679539763 pbc="T T T"
Si       0.00000000       0.00000000       0.00000000       0.00000000       0.00000000       0.00000000
