1
Lattice="2.4643082393379805 -1.5845918012130505e-17 -4.273639249355444e-48 1.2321541196689902 2.1341535380219936 -4.659110112925188e-48 1.4390220277917844e-47 -2.3750115155266476e-48 2.3192527081606795" Properties=species:S:1:pos:R:3:forces:R:3 cutoff=-1.0 nneightol=1.2 n_minim_iter=1 energy=-162.63851472958893 stress="-0.17759381446206543 -4.4407197997572675e-17 1.6273445228924148e-16 -4.4407197997572675e-17 -0.17759381446207342 1.114317266522942e-16 1.6273445228924148e-16 1.114317266522942e-16 -0.18975349387636373" free_energy=-162.63851472958893 pbc="T T T"
Si       0.00000000       0.00000000       0.00000000       0.00000000       0.00000000      -0.00000000
