1
Lattice="2.8082071803319275 1.0397304544059693e-17 2.420380467609522e-50 1.4041035901659638 2.4319787572573173 7.071332451629103e-50 -1.7828949714656914e-49 -9.126691487591001e-49 2.6231777457589223" Properties=species:S:1:pos:R:3:forces:R:3 cutoff=-1.0 nneightol=1.2 n_minim_iter=1 energy=-162.71216145908508 stress="0.0712272260874641 -3.783664043737284e-17 -1.8930424070393833e-17 -3.783664043737284e-17 0.07122722608746472 5.434629416628409e-17 -1.8930424070393833e-17 5.434629416628409e-17 0.08334756633301547" free_energy=-162.71216145908508 pbc="T T T"
Si       0.00000000       0.00000000       0.00000000       0.00000000      -0.00000000      -0.00000000
