1
Lattice="2.7261683911242516 1.0093558338369375e-17 2.3496716237694724e-50 1.3630841955621258 2.3609310817077533 6.864750986956675e-50 2.5074052669497004e-51 -3.950265802091843e-49 2.5465443948986968" Properties=species:S:1:pos:R:3:forces:R:3 cutoff=-1.0 nneightol=1.2 n_minim_iter=1 energy=-162.80613318725574 stress="0.04107834685229062 -1.151521043553987e-16 -4.958525817141939e-17 -1.151521043553987e-16 0.041078346852290656 -9.446071060403801e-17 -4.958525817141939e-17 -9.446071060403801e-17 0.04969446814693327" free_energy=-162.80613318725574 pbc="T T T"
Si       0.00000000       0.00000000       0.00000000       0.00000000       0.00000000      -0.00000000
