1
Lattice="2.489715269990414 -1.6009289508529957e-17 -4.3177004920492496e-48 1.2448576349952072 2.1561566720017304 -4.707145562209711e-48 6.411484486323206e-48 -7.938125467531383e-48 2.3431642155388333" Properties=species:S:1:pos:R:3:forces:R:3 cutoff=-1.0 nneightol=1.2 n_minim_iter=1 energy=-162.70025849436655 stress="-0.14121109437638713 -1.231460112537731e-17 1.188626717319027e-16 -1.231460112537731e-17 -0.1412110943763862 -1.177918368514351e-17 1.188626717319027e-16 -1.177918368514351e-17 -0.14673550342730485" free_energy=-162.70025849436655 pbc="T T T"
Si       0.00000000       0.00000000       0.00000000       0.00000000       0.00000000       0.00000000
