1
Lattice="2.5873402373699994 0.0 0.0 1.2936701186849995 2.240702373796079 0.0 0.0 0.0 2.58734024" Properties=species:S:1:pos:R:3:forces:R:3 cutoff=-1.0 nneightol=1.2 n_minim_iter=1 energy=-162.80098289664534 stress="-0.03712002064831341 1.768640797565193e-16 1.0639636498936273e-16 1.768640797565193e-16 -0.03712002064831575 9.21174234787319e-17 1.0639636498936273e-16 9.21174234787319e-17 0.052727669542675756" free_energy=-162.80098289664534 pbc="T T T"
Si       0.00000000       0.00000000       0.00000000       0.00000000       0.00000000       0.00000000
1
Lattice="2.6612347755300174 9.853143535213597e-18 2.293705648047917e-50 1.3306173877650085 2.3046969210435733 6.701241974384872e-50 1.310022487791037e-49 -2.615350788535176e-50 2.485889178085838" Properties=species:S:1:pos:R:3:forces:R:3 cutoff=-1.0 nneightol=1.2 n_minim_iter=2 energy=-162.8352056457914 stress="0.002838684560880975 3.581106085413727e-17 4.6193139656170704e-17 3.581106085413727e-17 0.002838684560882164 -1.0785984333509811e-16 4.6193139656170704e-17 -1.0785984333509811e-16 0.007595824543248033" free_energy=-162.8352056457914 pbc="T T T"
Si       0.00000000       0.00000000       0.00000000      -0.00000000      -0.00000000       0.00000000
