1
Lattice="2.8279839388237358 1.0470527411080973e-17 2.437425962080676e-50 1.4139919694118679 2.449105932515733 7.121132208246285e-50 -1.7954509835412566e-49 -9.190966080521141e-49 2.6416514371312334" Properties=species:S:1:pos:R:3:forces:R:3 cutoff=-1.0 nneightol=1.2 n_minim_iter=1 energy=-162.71216145908508 stress="0.0712272260874641 -3.783664043737284e-17 -1.8930424070393833e-17 -3.783664043737284e-17 0.07122722608746472 5.434629416628409e-17 -1.8930424070393833e-17 5.434629416628409e-17 0.08334756633301547" free_energy=-162.71216145908508 pbc="T T T"
Si       0.00000000       0.00000000       0.00000000       0.00000000      -0.00000000      -0.00000000
