1
Lattice="2.726168391124252 1.009355833836938e-17 2.3496716237694724e-50 1.363084195562126 2.360931081707754 6.864750986956677e-50 4.640449631124205e-50 -2.7228160295175777e-49 2.546544394898697" Properties=species:S:1:pos:R:3:forces:R:3 cutoff=-1.0 nneightol=1.2 n_minim_iter=1 energy=-162.82071020196423 stress="0.02979918629247867 6.2414375890111e-17 -4.182630050969244e-17 6.2414375890111e-17 0.02979918629248036 1.9937925631563234e-17 -4.182630050969244e-17 1.9937925631563234e-17 0.03754779389656826" free_energy=-162.82071020196423 pbc="T T T"
Si       0.00000000       0.00000000       0.00000000       0.00000000      -0.00000000       0.00000000
