1
Lattice="2.638870400739895 9.770340094905139e-18 2.2744298993455327e-50 1.3194352003699474 2.285328804335571 6.644926354112476e-50 8.74099291841899e-50 -1.447481295198195e-49 2.4649983653786616" Properties=species:S:1:pos:R:3:forces:R:3 cutoff=-1.0 nneightol=1.2 n_minim_iter=1 energy=-162.8352056457914 stress="0.002838684560880975 3.581106085413727e-17 4.6193139656170704e-17 3.581106085413727e-17 0.002838684560882164 -1.0785984333509811e-16 4.6193139656170704e-17 -1.0785984333509811e-16 0.007595824543248033" free_energy=-162.8352056457914 pbc="T T T"
Si       0.00000000       0.00000000       0.00000000      -0.00000000      -0.00000000       0.00000000
