1
Lattice="2.5453794933948246 9.424192758421131e-18 2.193850529126004e-50 1.2726897466974125 2.204363303551883 6.409507368052013e-50 -1.206168955717933e-49 -7.126449734434615e-49 2.3776674628384127" Properties=species:S:1:pos:R:3:forces:R:3 cutoff=-1.0 nneightol=1.2 n_minim_iter=1 energy=-162.7476066082293 stress="-0.10455985738109767 -2.0526527870860257e-15 3.869691305186883e-16 -2.0526527870860257e-15 -0.10455985738109706 -3.042700824642911e-16 3.869691305186883e-16 -3.042700824642911e-16 -0.12033692012054806" free_energy=-162.7476066082293 pbc="T T T"
Si       0.00000000       0.00000000       0.00000000       0.00000000      -0.00000000      -0.00000000
1
Lattice="2.539029330245182 -1.6326387241341278e-17 -4.4032216537633676e-48 1.2695146651225913 2.1988639009461166 -4.80038050464699e-48 -1.749595913912791e-48 -1.3743688546973124e-47 2.389575523170948" Properties=species:S:1:pos:R:3:forces:R:3 cutoff=-1.0 nneightol=1.2 n_minim_iter=2 energy=-162.74813002048998 stress="-0.10887244820602568 -2.1604476154462373e-16 4.16876018966033e-16 -2.1604476154462373e-16 -0.10887244820602968 1.9140408606300705e-16 4.16876018966033e-16 1.9140408606300705e-16 -0.10886273135787401" free_energy=-162.74813002048998 pbc="T T T"
Si       0.00000000       0.00000000       0.00000000       0.00000000       0.00000000      -0.00000000
