1
Lattice="2.405510635013842 -1.057252123555634e-17 -4.007292977802561e-48 1.202755317506921 2.083233318995624 -4.7173674341971264e-48 3.729769591111639e-47 1.4652071929786342e-47 2.281890731511559" Properties=species:S:1:pos:R:3:forces:R:3 cutoff=-1.0 nneightol=1.2 n_minim_iter=1 energy=-162.35340781473593 stress="-0.32589277559338864 -2.1238225129273885e-17 -2.038869612410293e-16 -2.1238225129273885e-17 -0.3258927755933815 4.830179200829147e-16 -2.038869612410293e-16 4.830179200829147e-16 -0.3366555248817546" free_energy=-162.35340781473593 pbc="T T T"
Si       0.00000000       0.00000000       0.00000000       0.00000000      -0.00000000       0.00000000
