1
Lattice="2.747139741340626 1.0171204146138445e-17 2.367746731189827e-50 1.373569870670313 2.3790928037467935 6.917558839019072e-50 2.5266937577702906e-51 -3.980653656287919e-49 2.5661339677661825" Properties=species:S:1:pos:R:3:forces:R:3 cutoff=-1.0 nneightol=1.2 n_minim_iter=1 energy=-162.80613318725574 stress="0.04107834685229062 -1.151521043553987e-16 -4.958525817141939e-17 -1.151521043553987e-16 0.041078346852290656 -9.446071060403801e-17 -4.958525817141939e-17 -9.446071060403801e-17 0.04969446814693327" free_energy=-162.80613318725574 pbc="T T T"
Si       0.00000000       0.00000000       0.00000000       0.00000000       0.00000000      -0.00000000
