1
Lattice="2.6832294487893353 9.934578166470817e-18 2.312662752752e-50 1.3416147243946674 2.323744866834081 6.75662665108213e-50 8.88792780569472e-50 -1.4718132564443255e-49 2.5064346484568176" Properties=species:S:1:pos:R:3:forces:R:3 cutoff=-1.0 nneightol=1.2 n_minim_iter=1 energy=-162.83061941931786 stress="0.017158232779495203 -1.2409931547662827e-16 -4.2624451827392906e-17 -1.2409931547662827e-16 0.017158232779494156 6.171665420841264e-17 -4.2624451827392906e-17 6.171665420841264e-17 0.023641863983930696" free_energy=-162.83061941931786 pbc="T T T"
Si       0.00000000       0.00000000       0.00000000      -0.00000000      -0.00000000       0.00000000
