1
Lattice="2.4319469346032996 -1.0688712091140503e-17 -4.0513326906859374e-48 1.2159734673016498 2.10612782602215 -4.769210787931984e-48 3.0021326513111803e-47 8.802758175437839e-48 2.3069684618406536" Properties=species:S:1:pos:R:3:forces:R:3 cutoff=-1.0 nneightol=1.2 n_minim_iter=1 energy=-162.46765960938285 stress="-0.26971903324703184 -3.3765841795389374e-16 1.6912282499255896e-16 -3.3765841795389374e-16 -0.26971903324701646 3.476413624847045e-16 1.6912282499255896e-16 3.476413624847045e-16 -0.27641541431924077" free_energy=-162.46765960938285 pbc="T T T"
Si       0.00000000       0.00000000       0.00000000      -0.00000000       0.00000000      -0.00000000
