1
Lattice="2.6161203859149014 9.686108833702618e-18 2.254821769323682e-50 1.3080601929574507 2.265626713560654 6.587639655597586e-50 2.406188134223239e-51 -3.790804312852122e-49 2.4437473220003185" Properties=species:S:1:pos:R:3:forces:R:3 cutoff=-1.0 nneightol=1.2 n_minim_iter=1 energy=-162.82535653081797 stress="-0.03157830018357516 -8.424678941376089e-17 -1.233873013501941e-16 -8.424678941376089e-17 -0.03157830018357329 3.72108075996169e-16 -1.233873013501941e-16 3.72108075996169e-16 -0.03245073793287878" free_energy=-162.82535653081797 pbc="T T T"
Si       0.00000000       0.00000000       0.00000000      -0.00000000       0.00000000       0.00000000
