1
Lattice="2.8655959582643096 -7.24095286507414e-18 -2.464230822751853e-50 1.4327979791321548 2.4816788968389045 2.542418069446827e-49 -3.2472154417846918e-49 -1.2424289467726114e-48 2.6263603929399753" Properties=species:S:1:pos:R:3:forces:R:3 cutoff=-1.0 nneightol=1.2 n_minim_iter=2 energy=-162.65328478002374 stress="0.08234190451368692 -3.2902221218856896e-17 1.4651588983132466e-17 -3.2902221218856896e-17 0.08234190451368749 -3.4096581136954964e-17 1.4651588983132466e-17 -3.4096581136954964e-17 0.0833286414512214" free_energy=-162.65328478002374 pbc="T T T"
Si       0.00000000       0.00000000       0.00000000       0.00000000       0.00000000      -0.00000000
