1
Lattice="2.4897152699904135 -1.6009289508529954e-17 -4.317700492049249e-48 1.2448576349952067 2.1561566720017304 -4.707145562209711e-48 1.4538583523172643e-47 -2.3994978964962124e-48 2.3431642155388337" Properties=species:S:1:pos:R:3:forces:R:3 cutoff=-1.0 nneightol=1.2 n_minim_iter=1 energy=-162.63851472958893 stress="-0.17759381446206543 -4.4407197997572675e-17 1.6273445228924148e-16 -4.4407197997572675e-17 -0.17759381446207342 1.114317266522942e-16 1.6273445228924148e-16 1.114317266522942e-16 -0.18975349387636373" free_energy=-162.63851472958893 pbc="T T T"
Si       0.00000000       0.00000000       0.00000000       0.00000000       0.00000000      -0.00000000
