1
Lattice="2.569393925717578 9.513105488244313e-18 2.214548454600239e-50 1.284696962858789 2.2251604120008492 6.469977989942262e-50 -8.0382168256000325e-50 -6.0368218595731076e-49 2.4000996127478906" Properties=species:S:1:pos:R:3:forces:R:3 cutoff=-1.0 nneightol=1.2 n_minim_iter=1 energy=-162.78363510231776 stress="-0.07661230083341322 2.819121549897664e-17 -1.4411652766292994e-17 2.819121549897664e-17 -0.07661230083341845 -6.219765930715924e-17 -1.4411652766292994e-17 -6.219765930715924e-17 -0.08659249228085691" free_energy=-162.78363510231776 pbc="T T T"
Si       0.00000000       0.00000000       0.00000000       0.00000000       0.00000000       0.00000000
