1
Lattice="2.6388704007398944 9.770340094905135e-18 2.274429899345532e-50 1.3194352003699474 2.28532880433557 6.644926354112473e-50 4.491852087188225e-50 -2.6356253892265793e-49 2.464998365378661" Properties=species:S:1:pos:R:3:forces:R:3 cutoff=-1.0 nneightol=1.2 n_minim_iter=1 energy=-162.83373260420362 stress="-0.013305726731121527 1.0145045039429947e-16 5.0615824999025045e-17 1.0145045039429947e-16 -0.01330572673111874 -1.1453471409001285e-16 5.0615824999025045e-17 -1.1453471409001285e-16 -0.010947365800995692" free_energy=-162.83373260420362 pbc="T T T"
Si       0.00000000       0.00000000       0.00000000       0.00000000       0.00000000       0.00000000
