1
Lattice="2.539029330245182 -1.6326387241341278e-17 -4.4032216537633676e-48 1.2695146651225913 2.1988639009461166 -4.80038050464699e-48 -1.749595913912791e-48 -1.3743688546973124e-47 2.389575523170948" Properties=species:S:1:pos:R:3:forces:R:3 cutoff=-1.0 nneightol=1.2 n_minim_iter=2 energy=-162.74813002048998 stress="-0.10887244820602568 -2.1604476154462373e-16 4.16876018966033e-16 -2.1604476154462373e-16 -0.10887244820602968 1.9140408606300705e-16 4.16876018966033e-16 1.9140408606300705e-16 -0.10886273135787401" free_energy=-162.74813002048998 pbc="T T T"
Si       0.00000000       0.00000000       0.00000000       0.00000000       0.00000000      -0.00000000
