1
Lattice="2.767795702961577 1.0247682236903123e-17 2.3855500066736303e-50 1.3838978514807887 2.3969813912501343 6.96957251263719e-50 -8.658906587535356e-50 -6.502969215903548e-49 2.585428932618072" Properties=species:S:1:pos:R:3:forces:R:3 cutoff=-1.0 nneightol=1.2 n_minim_iter=1 energy=-162.76506790720418 stress="0.05934298376525963 -1.254066626680935e-17 -8.363815324718816e-17 -1.254066626680935e-17 0.059342983765260364 8.414382527407564e-17 -8.363815324718816e-17 8.414382527407564e-17 0.06930004088471692" free_energy=-162.76506790720418 pbc="T T T"
Si       0.00000000       0.00000000       0.00000000       0.00000000      -0.00000000      -0.00000000
