1
Lattice="2.592967663848042 9.60038656077379e-18 2.234866547837497e-50 1.296483831924021 2.2455758680839932 6.529338901991658e-50 2.384893317129888e-51 -3.757255612594346e-49 2.422120105281804" Properties=species:S:1:pos:R:3:forces:R:3 cutoff=-1.0 nneightol=1.2 n_minim_iter=1 energy=-162.82535653081797 stress="-0.03157830018357516 -8.424678941376089e-17 -1.233873013501941e-16 -8.424678941376089e-17 -0.03157830018357329 3.72108075996169e-16 -1.233873013501941e-16 3.72108075996169e-16 -0.03245073793287878" free_energy=-162.82535653081797 pbc="T T T"
Si       0.00000000       0.00000000       0.00000000      -0.00000000       0.00000000       0.00000000
