1
Lattice="2.514614074447706 -1.6169393024694118e-17 -4.3608803614714674e-48 1.2573070372238533 2.1777196691856067 -4.75422014070395e-48 6.475603584771978e-48 -8.017511988615088e-48 2.3665974122249147" Properties=species:S:1:pos:R:3:forces:R:3 cutoff=-1.0 nneightol=1.2 n_minim_iter=1 energy=-162.70025849436655 stress="-0.14121109437638713 -1.231460112537731e-17 1.188626717319027e-16 -1.231460112537731e-17 -0.1412110943763862 -1.177918368514351e-17 1.188626717319027e-16 -1.177918368514351e-17 -0.14673550342730485" free_energy=-162.70025849436655 pbc="T T T"
Si       0.00000000       0.00000000       0.00000000       0.00000000       0.00000000       0.00000000
