1
Lattice="2.8474878926615386 1.0542740226889295e-17 2.4542363275126867e-50 1.423743946330769 2.4659968520135096 7.1702450168290315e-50 -2.2663397177897377e-49 -1.0536427598913935e-48 2.659870298624062" Properties=species:S:1:pos:R:3:forces:R:3 cutoff=-1.0 nneightol=1.2 n_minim_iter=1 energy=-162.68255362859628 stress="0.07542424652062277 -2.7115273572138016e-17 2.8773491405913856e-17 -2.7115273572138016e-17 0.07542424652062267 1.433461679344686e-17 2.8773491405913856e-17 1.433461679344686e-17 0.08902835928309989" free_energy=-162.68255362859628 pbc="T T T"
Si       0.00000000       0.00000000       0.00000000       0.00000000      -0.00000000       0.00000000
