1
Lattice="2.8279839388237353 1.047052741108097e-17 2.4374259620806754e-50 1.4139919694118674 2.449105932515733 7.121132208246285e-50 -2.250816355829018e-49 -1.0464258021640512e-48 2.641651437131233" Properties=species:S:1:pos:R:3:forces:R:3 cutoff=-1.0 nneightol=1.2 n_minim_iter=1 energy=-162.68255362859628 stress="0.07542424652062277 -2.7115273572138016e-17 2.8773491405913856e-17 -2.7115273572138016e-17 0.07542424652062267 1.433461679344686e-17 2.8773491405913856e-17 1.433461679344686e-17 0.08902835928309989" free_energy=-162.68255362859628 pbc="T T T"
Si       0.00000000       0.00000000       0.00000000       0.00000000      -0.00000000       0.00000000
