1
Lattice="2.545379493394825 9.424192758421131e-18 2.193850529126004e-50 1.2726897466974125 2.204363303551883 6.409507368052013e-50 -7.963088908458998e-50 -5.980399662672822e-49 2.3776674628384122" Properties=species:S:1:pos:R:3:forces:R:3 cutoff=-1.0 nneightol=1.2 n_minim_iter=1 energy=-162.78363510231776 stress="-0.07661230083341322 2.819121549897664e-17 -1.4411652766292994e-17 2.819121549897664e-17 -0.07661230083341845 -6.219765930715924e-17 -1.4411652766292994e-17 -6.219765930715924e-17 -0.08659249228085691" free_energy=-162.78363510231776 pbc="T T T"
Si       0.00000000       0.00000000       0.00000000       0.00000000       0.00000000       0.00000000
