1
Lattice="2.808207180331928 1.0397304544059694e-17 2.4203804676095224e-50 1.404103590165964 2.4319787572573177 7.0713324516291035e-50 -1.3307140765965025e-49 -7.86230397724416e-49 2.6231777457589223" Properties=species:S:1:pos:R:3:forces:R:3 cutoff=-1.0 nneightol=1.2 n_minim_iter=1 energy=-162.7398110403168 stress="0.06598183670449365 -1.8445349056858713e-17 -1.2366978918443653e-20 -1.8445349056858713e-17 0.06598183670449441 1.2250729316610285e-16 -1.2366978918443653e-20 1.2250729316610285e-16 0.07689215459570557" free_energy=-162.7398110403168 pbc="T T T"
Si       0.00000000       0.00000000       0.00000000      -0.00000000       0.00000000       0.00000000
