1
Lattice="2.405510635013842 -1.0572521235556336e-17 -4.0072929778025606e-48 1.202755317506921 2.0832333189956236 -4.717367434197126e-48 2.969498189987993e-47 8.707068442644643e-48 2.281890731511559" Properties=species:S:1:pos:R:3:forces:R:3 cutoff=-1.0 nneightol=1.2 n_minim_iter=1 energy=-162.46765960938285 stress="-0.26971903324703184 -3.3765841795389374e-16 1.6912282499255896e-16 -3.3765841795389374e-16 -0.26971903324701646 3.476413624847045e-16 1.6912282499255896e-16 3.476413624847045e-16 -0.27641541431924077" free_energy=-162.46765960938285 pbc="T T T"
Si       0.00000000       0.00000000       0.00000000      -0.00000000       0.00000000      -0.00000000
