1
Lattice="2.788147872859893 1.0323035547744036e-17 2.4030914455106085e-50 1.3940739364299468 2.414606887404213 7.020821209838377e-50 -8.722577304927757e-50 -6.550786883292789e-49 2.6044401222229845" Properties=species:S:1:pos:R:3:forces:R:3 cutoff=-1.0 nneightol=1.2 n_minim_iter=1 energy=-162.76506790720418 stress="0.05934298376525963 -1.254066626680935e-17 -8.363815324718816e-17 -1.254066626680935e-17 0.059342983765260364 8.414382527407564e-17 -8.363815324718816e-17 8.414382527407564e-17 0.06930004088471692" free_energy=-162.76506790720418 pbc="T T T"
Si       0.00000000       0.00000000       0.00000000       0.00000000      -0.00000000      -0.00000000
