1
Lattice="2.8849586804694787 -7.28987970642552e-18 -2.4808815360991944e-50 1.4424793402347393 2.498447506155002 2.5595970910273564e-49 -3.269156752232971e-49 -1.250823991610192e-48 2.6441066095873342" Properties=species:S:1:pos:R:3:forces:R:3 cutoff=-1.0 nneightol=1.2 n_minim_iter=2 energy=-162.65328478002374 stress="0.08234190451368692 -3.2902221218856896e-17 1.4651588983132466e-17 -3.2902221218856896e-17 0.08234190451368749 -3.4096581136954964e-17 1.4651588983132466e-17 -3.4096581136954964e-17 0.0833286414512214" free_energy=-162.65328478002374 pbc="T T T"
Si       0.00000000       0.00000000       0.00000000       0.00000000       0.00000000      -0.00000000
