1
Lattice="2.7048693304777043 1.0014699192364924e-17 2.331314064281557e-50 1.3524346652388521 2.342485554111098 6.811117928899562e-50 4.604194637323252e-50 -2.7015431602660303e-49 2.5266487040519165" Properties=species:S:1:pos:R:3:forces:R:3 cutoff=-1.0 nneightol=1.2 n_minim_iter=1 energy=-162.82071020196423 stress="0.02979918629247867 6.2414375890111e-17 -4.182630050969244e-17 6.2414375890111e-17 0.02979918629248036 1.9937925631563234e-17 -4.182630050969244e-17 1.9937925631563234e-17 0.03754779389656826" free_energy=-162.82071020196423 pbc="T T T"
Si       0.00000000       0.00000000       0.00000000       0.00000000      -0.00000000       0.00000000
