1
Lattice="2.7048693304777043 1.0014699192364924e-17 2.331314064281557e-50 1.352434665238852 2.342485554111098 6.811117928899563e-50 8.959607738343334e-50 -1.4836832307960152e-49 2.5266487040519165" Properties=species:S:1:pos:R:3:forces:R:3 cutoff=-1.0 nneightol=1.2 n_minim_iter=1 energy=-162.83061941931786 stress="0.017158232779495203 -1.2409931547662827e-16 -4.2624451827392906e-17 -1.2409931547662827e-16 0.017158232779494156 6.171665420841264e-17 -4.2624451827392906e-17 6.171665420841264e-17 0.023641863983930696" free_energy=-162.83061941931786 pbc="T T T"
Si       0.00000000       0.00000000       0.00000000      -0.00000000      -0.00000000       0.00000000
