1
Lattice="2.847487892661538 1.0542740226889296e-17 2.454236327512686e-50 1.423743946330769 2.4659968520135087 7.170245016829029e-50 -2.7248456401628477e-49 -1.181850114126544e-48 2.6598702986240617" Properties=species:S:1:pos:R:3:forces:R:3 cutoff=-1.0 nneightol=1.2 n_minim_iter=1 energy=-162.65124777537486 stress="0.07900452374255722 3.2693244513867686e-17 -8.916339412873006e-18 3.2693244513867686e-17 0.07900452374255727 1.5417836901426237e-17 -8.916339412873006e-18 1.5417836901426237e-17 0.09457403218509841" free_energy=-162.65124777537486 pbc="T T T"
Si       0.00000000       0.00000000       0.00000000       0.00000000       0.00000000      -0.00000000
1
Lattice="2.8655959582643096 -7.24095286507414e-18 -2.464230822751853e-50 1.4327979791321548 2.4816788968389045 2.542418069446827e-49 -3.2472154417846918e-49 -1.2424289467726114e-48 2.6263603929399753" Properties=species:S:1:pos:R:3:forces:R:3 cutoff=-1.0 nneightol=1.2 n_minim_iter=2 energy=-162.65328478002374 stress="0.08234190451368692 -3.2902221218856896e-17 1.4651588983132466e-17 -3.2902221218856896e-17 0.08234190451368749 -3.4096581136954964e-17 1.4651588983132466e-17 -3.4096581136954964e-17 0.0833286414512214" free_energy=-162.65328478002374 pbc="T T T"
Si       0.00000000       0.00000000       0.00000000       0.00000000       0.00000000      -0.00000000
