1
Lattice="2.884958680469479 -7.289879706425521e-18 -2.480881536099195e-50 1.4424793402347396 2.498447506155002 2.5595970910273564e-49 -2.8144039468211775e-49 -1.8188433982333286e-48 2.6441066095873342" Properties=species:S:1:pos:R:3:forces:R:3 cutoff=-1.0 nneightol=1.2 n_minim_iter=1 energy=-162.62101952460648 stress="0.08546410740000253 -2.9126708748718464e-17 -3.2039379623590304e-17 -2.9126708748718464e-17 0.0854641074000021 -7.308983476631539e-17 -3.2039379623590304e-17 -7.308983476631539e-17 0.08899555533728738" free_energy=-162.62101952460648 pbc="T T T"
Si       0.00000000       0.00000000       0.00000000      -0.00000000      -0.00000000      -0.00000000
