1
Lattice="2.616120385914902 9.686108833702618e-18 2.2548217693236828e-50 1.3080601929574511 2.265626713560654 6.587639655597587e-50 4.453127297389319e-50 -2.6129033500308613e-49 2.4437473220003185" Properties=species:S:1:pos:R:3:forces:R:3 cutoff=-1.0 nneightol=1.2 n_minim_iter=1 energy=-162.83373260420362 stress="-0.013305726731121527 1.0145045039429947e-16 5.0615824999025045e-17 1.0145045039429947e-16 -0.01330572673111874 -1.1453471409001285e-16 5.0615824999025045e-17 -1.1453471409001285e-16 -0.010947365800995692" free_energy=-162.83373260420362 pbc="T T T"
Si       0.00000000       0.00000000       0.00000000       0.00000000       0.00000000       0.00000000
