1
Lattice="2.747139741340626 1.0171204146138445e-17 2.367746731189828e-50 1.3735698706703132 2.3790928037467935 6.917558839019071e-50 -4.170808048788523e-50 -5.217545721252293e-49 2.5661339677661816" Properties=species:S:1:pos:R:3:forces:R:3 cutoff=-1.0 nneightol=1.2 n_minim_iter=1 energy=-162.78738253111405 stress="0.05107494530571662 6.712925448074451e-16 -5.17164572953098e-18 6.712925448074451e-16 0.05107494530571657 3.392599598572323e-17 -5.17164572953098e-18 3.392599598572323e-17 0.060297021781804676" free_energy=-162.78738253111405 pbc="T T T"
Si       0.00000000       0.00000000       0.00000000      -0.00000000       0.00000000       0.00000000
