1
Lattice="2.5146140744477066 -1.6169393024694124e-17 -4.3608803614714686e-48 1.2573070372238535 2.1777196691856076 -4.7542201407039505e-48 -1.732771834225506e-48 -1.3611529509864728e-47 2.3665974122249156" Properties=species:S:1:pos:R:3:forces:R:3 cutoff=-1.0 nneightol=1.2 n_minim_iter=2 energy=-162.74813002048998 stress="-0.10887244820602568 -2.1604476154462373e-16 4.16876018966033e-16 -2.1604476154462373e-16 -0.10887244820602968 1.9140408606300705e-16 4.16876018966033e-16 1.9140408606300705e-16 -0.10886273135787401" free_energy=-162.74813002048998 pbc="T T T"
Si       0.00000000       0.00000000       0.00000000       0.00000000       0.00000000      -0.00000000
