2
Lattice="4.603936130299149 -3.7650368290561037e-17 -1.6410287386200903e-17 -3.765036829056062e-17 4.603936130299149 -3.2734585567300844e-16 2.3019680651495746 2.3019680651495746 1.269662245715228" Properties=species:S:1:pos:R:3:forces:R:3 cutoff=-1.0 nneightol=1.2 n_minim_iter=1 energy=-325.5100303282236 stress="-0.12380072430740943 1.0926133670484677e-15 -1.3778751824984811e-15 1.0926133670484677e-15 -0.1238007243074116 -1.6171469207766608e-15 -1.3778751824984811e-15 -1.6171469207766608e-15 -0.10929724619714797" free_energy=-325.5100303282236 pbc="T T T"
Si      -0.00000000      -1.15098403      -0.31741556      -0.00000000      -0.00000000       0.00000000
Si      -0.00000000       1.15098403       0.31741556       0.00000000       0.00000000       0.00000000
