2
Lattice="5.048388231757862 -9.344147508815007e-17 8.878251542038389e-16 -9.344147508814757e-17 5.048388231757862 -2.005978507286299e-15 2.5241941158789305 2.5241941158789314 1.4783229879306314" Properties=species:S:1:pos:R:3:forces:R:3 cutoff=-1.0 nneightol=1.2 n_minim_iter=1 energy=-325.49315465166916 stress="0.05877022184772122 3.552701814270439e-17 -5.945140804483734e-16 3.552701814270439e-17 0.05877022184772177 1.8946974739749292e-16 -5.945140804483734e-16 1.8946974739749292e-16 0.04665421402899715" free_energy=-325.49315465166916 pbc="T T T"
Si      -0.00000000      -1.26209706      -0.36958075       0.00000000       0.00000000       0.00000000
Si      -0.00000000       1.26209706       0.36958075      -0.00000000      -0.00000000      -0.00000000
