2
Lattice="4.539013746423366 -6.6937385416094e-17 -5.783074113178764e-16 -6.693738541609362e-17 4.539013746423367 6.4772129601154595e-16 2.269506873211683 2.269506873211684 1.2316000147846209" Properties=species:S:1:pos:R:3:forces:R:3 cutoff=-1.0 nneightol=1.2 n_minim_iter=2 energy=-325.4081051859548 stress="-0.15302327535856688 4.250837361766608e-16 5.817991810567301e-16 4.250837361766608e-16 -0.15302327535856255 -4.046052333954741e-15 5.817991810567301e-16 -4.046052333954741e-15 -0.15264320379576424" free_energy=-325.4081051859548 pbc="T T T"
Si      -0.00000000      -1.13475344      -0.30790000      -0.00000000      -0.00000000       0.00000000
Si      -0.00000000       1.13475344       0.30790000       0.00000000       0.00000000      -0.00000000
