2
Lattice="4.892412180831822 -4.0009486496845907e-17 -1.7438532513695684e-17 -4.00094864968455e-17 4.892412180831822 -3.4785687861733693e-16 2.446206090415911 2.446206090415911 1.349217465376924" Properties=species:S:1:pos:R:3:forces:R:3 cutoff=-1.0 nneightol=1.2 n_minim_iter=1 energy=-325.6908094848889 stress="0.02948307617270836 1.819714891756274e-17 -1.2548015010278098e-15 1.819714891756274e-17 0.02948307617270738 -5.76693018623055e-16 -1.2548015010278098e-15 -5.76693018623055e-16 0.02418170987172957" free_energy=-325.6908094848889 pbc="T T T"
Si      -0.00000000      -1.22310304      -0.33730437       0.00000000      -0.00000000       0.00000000
Si      -0.00000000       1.22310305       0.33730437      -0.00000000       0.00000000      -0.00000000
