2
Lattice="4.948423447106494 -9.682828483686703e-17 8.252854946488095e-16 -9.682828483686378e-17 4.948423447106493 -1.957702378338671e-15 2.4742117235532466 2.474211723553247 1.5386544935744846" Properties=species:S:1:pos:R:3:forces:R:3 cutoff=-1.0 nneightol=1.2 n_minim_iter=2 energy=-325.4569476927602 stress="0.04910131720571482 1.415017956474031e-16 -5.275046770037528e-16 1.415017956474031e-16 0.04910131720571545 -2.8928449779750584e-16 -5.275046770037528e-16 -2.8928449779750584e-16 0.05385444803344999" free_energy=-325.4569476927602 pbc="T T T"
Si      -0.00000000      -1.23710586      -0.38466362       0.00000000      -0.00000000       0.00000000
Si      -0.00000000       1.23710586       0.38466362      -0.00000000       0.00000000      -0.00000000
