2
Lattice="4.773037110053783 -3.903325327981107e-17 -1.7013031559126973e-17 -3.903325327981066e-17 4.773037110053783 -3.3936915559427144e-16 2.3865185550268917 2.3865185550268917 1.3162965003250895" Properties=species:S:1:pos:R:3:forces:R:3 cutoff=-1.0 nneightol=1.2 n_minim_iter=1 energy=-325.70645711268565 stress="-0.01832788351785561 6.045158795258047e-17 1.434625530679845e-16 6.045158795258047e-17 -0.018327883517854547 1.3628942541458528e-16 1.434625530679845e-16 1.3628942541458528e-16 -0.017092219143481302" free_energy=-325.70645711268565 pbc="T T T"
Si      -0.00000000      -1.19325928      -0.32907413       0.00000000       0.00000000       0.00000000
Si      -0.00000000       1.19325928       0.32907413      -0.00000000      -0.00000000      -0.00000000
