2
Lattice="4.943182707122991 -9.149420816690494e-17 8.693233855513268e-16 -9.149420816690471e-17 4.943182707122991 -1.9641750619930583e-15 2.4715913535614957 2.471591353561495 1.4475155820051804" Properties=species:S:1:pos:R:3:forces:R:3 cutoff=-1.0 nneightol=1.2 n_minim_iter=2 energy=-325.6070317080294 stress="0.042900858142919156 5.625245788077304e-17 -3.4853687355032694e-16 5.625245788077304e-17 0.042900858142918746 3.2700399276927606e-17 -3.4853687355032694e-16 3.2700399276927606e-17 0.04367031785657955" free_energy=-325.6070317080294 pbc="T T T"
Si      -0.00000000      -1.23579568      -0.36187890       0.00000000      -0.00000000       0.00000000
Si      -0.00000000       1.23579568       0.36187890      -0.00000000       0.00000000       0.00000000
