2
Lattice="4.6473720552393205 -3.8005581422271513e-17 -1.6565110561627386e-17 -3.80055814222711e-17 4.6473720552393205 -3.304342065132633e-16 2.3236860276196603 2.3236860276196603 1.281640898859721" Properties=species:S:1:pos:R:3:forces:R:3 cutoff=-1.0 nneightol=1.2 n_minim_iter=1 energy=-325.6468075242458 stress="-0.06372474034825273 -1.2311146138967766e-16 1.479002613355103e-15 -1.2311146138967766e-16 -0.0637247403482522 -2.7170331650355947e-16 1.479002613355103e-15 -2.7170331650355947e-16 -0.05735673212856734" free_energy=-325.6468075242458 pbc="T T T"
Si      -0.00000000      -1.16184301      -0.32041022      -0.00000000       0.00000000       0.00000000
Si      -0.00000000       1.16184302       0.32041022       0.00000000      -0.00000000      -0.00000000
