2
Lattice="4.98185975493054 -9.748254985126733e-17 8.308619171471576e-16 -9.748254985126405e-17 4.9818597549305395 -1.97093049837522e-15 2.4909298774652697 2.49092987746527 1.549051123093345" Properties=species:S:1:pos:R:3:forces:R:3 cutoff=-1.0 nneightol=1.2 n_minim_iter=2 energy=-325.4569476927602 stress="0.04910131720571482 1.415017956474031e-16 -5.275046770037528e-16 1.415017956474031e-16 0.04910131720571545 -2.8928449779750584e-16 -5.275046770037528e-16 -2.8928449779750584e-16 0.05385444803344999" free_energy=-325.4569476927602 pbc="T T T"
Si      -0.00000000      -1.24546494      -0.38726278       0.00000000      -0.00000000       0.00000000
Si      -0.00000000       1.24546494       0.38726278      -0.00000000       0.00000000      -0.00000000
