2
Lattice="5.013809144949006 -9.2801444898258e-17 8.817439691465618e-16 -9.28014448982562e-17 5.013809144949006 -1.9922384972562066e-15 2.5069045724745025 2.5069045724745034 1.4681971702271495" Properties=species:S:1:pos:R:3:forces:R:3 cutoff=-1.0 nneightol=1.2 n_minim_iter=1 energy=-325.5339374932919 stress="0.054074173198657184 -1.0629100320929763e-17 2.8349608526390823e-16 -1.0629100320929763e-17 0.054074173198657205 8.875453126531768e-17 2.8349608526390823e-16 8.875453126531768e-17 0.04589599614928611" free_energy=-325.5339374932919 pbc="T T T"
Si      -0.00000000      -1.25345228      -0.36704929      -0.00000000       0.00000000       0.00000000
Si      -0.00000000       1.25345229       0.36704929       0.00000000      -0.00000000      -0.00000000
