2
Lattice="4.968868470481127 -4.063473571446247e-17 -1.771105360219875e-17 -4.063473571446205e-17 4.968868470481127 -3.532930203987411e-16 2.4844342352405633 2.4844342352405633 1.370302393939754" Properties=species:S:1:pos:R:3:forces:R:3 cutoff=-1.0 nneightol=1.2 n_minim_iter=1 energy=-325.6328829496771 stress="0.05019057190511452 -5.5328979269471596e-17 5.545816347631004e-16 -5.5328979269471596e-17 0.05019057190511456 3.5071545689530384e-16 5.545816347631004e-16 3.5071545689530384e-16 0.03804480531673846" free_energy=-325.6328829496771 pbc="T T T"
Si      -0.00000000      -1.24221712      -0.34257560      -0.00000000      -0.00000000      -0.00000000
Si      -0.00000000       1.24221712       0.34257560       0.00000000       0.00000000       0.00000000
