2
Lattice="4.6473720552393205 -3.8005581422271513e-17 -1.6565110561627392e-17 -3.80055814222711e-17 4.6473720552393205 -3.3043420651326326e-16 2.3236860276196603 2.3236860276196603 1.2816408988597217" Properties=species:S:1:pos:R:3:forces:R:3 cutoff=-1.0 nneightol=1.2 n_minim_iter=1 energy=-325.58942308455045 stress="-0.09162340880166207 -2.2646322774059928e-17 -9.425335475756823e-17 -2.2646322774059928e-17 -0.09162340880166014 1.6965603856362282e-15 -9.425335475756823e-17 1.6965603856362282e-15 -0.08156506052631614" free_energy=-325.58942308455045 pbc="T T T"
Si      -0.00000000      -1.16184301      -0.32041022      -0.00000000       0.00000000      -0.00000000
Si      -0.00000000       1.16184302       0.32041022       0.00000000      -0.00000000      -0.00000000
