2
Lattice="4.731888190810337 -3.869674297201633e-17 -1.6866360195470882e-17 -3.8696742972015915e-17 4.731888190810337 -3.3644341383796906e-16 2.3659440954051685 2.3659440954051685 1.3049485520180841" Properties=species:S:1:pos:R:3:forces:R:3 cutoff=-1.0 nneightol=1.2 n_minim_iter=1 energy=-325.70645711268565 stress="-0.01832788351785561 6.045158795258047e-17 1.434625530679845e-16 6.045158795258047e-17 -0.018327883517854547 1.3628942541458528e-16 1.434625530679845e-16 1.3628942541458528e-16 -0.017092219143481302" free_energy=-325.70645711268565 pbc="T T T"
Si      -0.00000000      -1.18297205      -0.32623714       0.00000000       0.00000000       0.00000000
Si      -0.00000000       1.18297205       0.32623714      -0.00000000      -0.00000000      -0.00000000
