2
Lattice="4.603936130299149 -3.7650368290561025e-17 -1.64102873862009e-17 -3.765036829056062e-17 4.603936130299149 -3.2734585567300844e-16 2.3019680651495746 2.3019680651495746 1.269662245715228" Properties=species:S:1:pos:R:3:forces:R:3 cutoff=-1.0 nneightol=1.2 n_minim_iter=1 energy=-325.58942308455045 stress="-0.09162340880166207 -2.2646322774059928e-17 -9.425335475756823e-17 -2.2646322774059928e-17 -0.09162340880166014 1.6965603856362282e-15 -9.425335475756823e-17 1.6965603856362282e-15 -0.08156506052631614" free_energy=-325.58942308455045 pbc="T T T"
Si      -0.00000000      -1.15098403      -0.31741556      -0.00000000       0.00000000      -0.00000000
Si      -0.00000000       1.15098403       0.31741556       0.00000000      -0.00000000      -0.00000000
