2
Lattice="4.8134885057670695 -3.9364059334319364e-17 -1.7157216667269384e-17 -3.9364059334318945e-17 4.8134885057670695 -3.4224530251902747e-16 2.4067442528835348 2.4067442528835348 1.3274520872989488" Properties=species:S:1:pos:R:3:forces:R:3 cutoff=-1.0 nneightol=1.2 n_minim_iter=1 energy=-325.7132502003875 stress="6.078951178293496e-05 3.907244870568477e-18 1.5232946441244446e-15 3.907244870568477e-18 6.078951178148181e-05 -8.593349080968616e-16 1.5232946441244446e-15 -8.593349080968616e-16 -0.0006724766767666801" free_energy=-325.7132502003875 pbc="T T T"
Si      -0.00000000      -1.20337213      -0.33186302      -0.00000000       0.00000000       0.00000000
Si      -0.00000000       1.20337213       0.33186302       0.00000000      -0.00000000       0.00000000
