2
Lattice="4.892412180831822 -4.000948649684591e-17 -1.7438532513695684e-17 -4.0009486496845494e-17 4.892412180831822 -3.4785687861733693e-16 2.446206090415911 2.446206090415911 1.3492174653769242" Properties=species:S:1:pos:R:3:forces:R:3 cutoff=-1.0 nneightol=1.2 n_minim_iter=1 energy=-325.70739085691486 stress="0.015941170422246544 -3.357836923375248e-17 -9.838641572125e-16 -3.357836923375248e-17 0.015941170422246704 2.2494612274522934e-16 -9.838641572125e-16 2.2494612274522934e-16 0.013135173939358076" free_energy=-325.70739085691486 pbc="T T T"
Si      -0.00000000      -1.22310304      -0.33730437       0.00000000       0.00000000       0.00000000
Si      -0.00000000       1.22310305       0.33730437      -0.00000000      -0.00000000       0.00000000
