2
Lattice="4.978746395397141 -9.215246251252105e-17 8.755777256647574e-16 -9.215246251252008e-17 4.978746395397141 -1.9783063036968947e-15 2.48937319769857 2.489373197698571 1.4579297212309523" Properties=species:S:1:pos:R:3:forces:R:3 cutoff=-1.0 nneightol=1.2 n_minim_iter=1 energy=-325.57204462922294 stress="0.048970418690289896 -1.575903058177241e-16 4.369898541864826e-17 -1.575903058177241e-16 0.04897041869029054 -9.483440031440375e-16 4.369898541864826e-17 -9.483440031440375e-16 0.045068618329688045" free_energy=-325.57204462922294 pbc="T T T"
Si      -0.00000000      -1.24468660      -0.36448243       0.00000000       0.00000000       0.00000000
Si      -0.00000000       1.24468660       0.36448243      -0.00000000      -0.00000000      -0.00000000
