2
Lattice="5.013809144949004 -9.2801444898258e-17 8.817439691465613e-16 -9.280144489825552e-17 5.013809144949004 -1.992238497256206e-15 2.5069045724745016 2.5069045724745025 1.4681971702271495" Properties=species:S:1:pos:R:3:forces:R:3 cutoff=-1.0 nneightol=1.2 n_minim_iter=1 energy=-325.49315465166916 stress="0.05877022184772122 3.552701814270439e-17 -5.945140804483734e-16 3.552701814270439e-17 0.05877022184772177 1.8946974739749292e-16 -5.945140804483734e-16 1.8946974739749292e-16 0.04665421402899715" free_energy=-325.49315465166916 pbc="T T T"
Si      -0.00000000      -1.25345228      -0.36704929       0.00000000       0.00000000       0.00000000
Si      -0.00000000       1.25345229       0.36704929      -0.00000000      -0.00000000      -0.00000000
