2
Lattice="5.006229786646182 -4.09402715154865e-17 -1.784422441909178e-17 -4.094027151548608e-17 5.006229786646182 -3.5594945864266723e-16 2.503114893323091 2.503114893323091 1.3806058063335136" Properties=species:S:1:pos:R:3:forces:R:3 cutoff=-1.0 nneightol=1.2 n_minim_iter=1 energy=-325.6328829496771 stress="0.05019057190511452 -5.5328979269471596e-17 5.545816347631004e-16 -5.5328979269471596e-17 0.05019057190511456 3.5071545689530384e-16 5.545816347631004e-16 3.5071545689530384e-16 0.03804480531673846" free_energy=-325.6328829496771 pbc="T T T"
Si      -0.00000000      -1.25155745      -0.34515145      -0.00000000      -0.00000000      -0.00000000
Si      -0.00000000       1.25155745       0.34515145       0.00000000       0.00000000       0.00000000
