2
Lattice="5.006229786646182 -4.09402715154865e-17 -1.7844224419091785e-17 -4.094027151548608e-17 5.006229786646182 -3.5594945864266723e-16 2.503114893323091 2.503114893323091 1.3806058063335136" Properties=species:S:1:pos:R:3:forces:R:3 cutoff=-1.0 nneightol=1.2 n_minim_iter=1 energy=-325.5949218020687 stress="0.0577792650861518 9.821176574998632e-17 -2.6300696758415066e-16 9.821176574998632e-17 0.05777926508615141 4.773330801312807e-16 -2.6300696758415066e-16 4.773330801312807e-16 0.04134720718139636" free_energy=-325.5949218020687 pbc="T T T"
Si      -0.00000000      -1.25155745      -0.34515145       0.00000000      -0.00000000       0.00000000
Si      -0.00000000       1.25155745       0.34515145      -0.00000000       0.00000000      -0.00000000
2
Lattice="4.907099795139349 -9.082634342147639e-17 8.629777331519182e-16 -9.082634342147617e-17 4.907099795139349 -1.9498375065998026e-15 2.453549897569675 2.453549897569674 1.4369493981444907" Properties=species:S:1:pos:R:3:forces:R:3 cutoff=-1.0 nneightol=1.2 n_minim_iter=2 energy=-325.6070317080294 stress="0.042900858142919156 5.625245788077304e-17 -3.4853687355032694e-16 5.625245788077304e-17 0.042900858142918746 3.2700399276927606e-17 -3.4853687355032694e-16 3.2700399276927606e-17 0.04367031785657955" free_energy=-325.6070317080294 pbc="T T T"
Si      -0.00000000      -1.22677495      -0.35923735       0.00000000      -0.00000000       0.00000000
Si      -0.00000000       1.22677495       0.35923735      -0.00000000       0.00000000       0.00000000
