2
Lattice="4.690010877853665 -3.835427595874452e-17 -1.6717092542503644e-17 -3.83542759587441e-17 4.690010877853665 -3.334658823398946e-16 2.3450054389268327 2.3450054389268327 1.2933997290743497" Properties=species:S:1:pos:R:3:forces:R:3 cutoff=-1.0 nneightol=1.2 n_minim_iter=1 energy=-325.6468075242458 stress="-0.06372474034825273 -1.2311146138967766e-16 1.479002613355103e-15 -1.2311146138967766e-16 -0.0637247403482522 -2.7170331650355947e-16 1.479002613355103e-15 -2.7170331650355947e-16 -0.05735673212856734" free_energy=-325.6468075242458 pbc="T T T"
Si      -0.00000000      -1.17250272      -0.32334993      -0.00000000       0.00000000       0.00000000
Si      -0.00000000       1.17250272       0.32334993       0.00000000      -0.00000000      -0.00000000
