2
Lattice="4.445399018993972 -6.555683769347449e-17 -5.663801307002355e-16 -6.555683769347341e-17 4.445399018993972 6.343623912000955e-16 2.222699509496986 2.222699509496986 1.2061989241232518" Properties=species:S:1:pos:R:3:forces:R:3 cutoff=-1.0 nneightol=1.2 n_minim_iter=1 energy=-324.9086894481431 stress="-0.2897167938846441 2.8004308355903457e-16 5.749325260177684e-16 2.8004308355903457e-16 -0.2897167938846489 -1.510689794313524e-15 5.749325260177684e-16 -1.510689794313524e-15 -0.2792236433130127" free_energy=-324.9086894481431 pbc="T T T"
Si      -0.00000000      -1.11134975      -0.30154973       0.00000000      -0.00000000       0.00000000
Si      -0.00000000       1.11134976       0.30154973      -0.00000000       0.00000000      -0.00000000
