2
Lattice="4.773037110053783 -3.903325327981107e-17 -1.701303155912697e-17 -3.903325327981066e-17 4.773037110053783 -3.3936915559427144e-16 2.3865185550268917 2.3865185550268917 1.3162965003250895" Properties=species:S:1:pos:R:3:forces:R:3 cutoff=-1.0 nneightol=1.2 n_minim_iter=1 energy=-325.7132502003875 stress="6.078951178293496e-05 3.907244870568477e-18 1.5232946441244446e-15 3.907244870568477e-18 6.078951178148181e-05 -8.593349080968616e-16 1.5232946441244446e-15 -8.593349080968616e-16 -0.0006724766767666801" free_energy=-325.7132502003875 pbc="T T T"
Si      -0.00000000      -1.19325928      -0.32907413      -0.00000000       0.00000000       0.00000000
Si      -0.00000000       1.19325928       0.32907413       0.00000000      -0.00000000       0.00000000
