2
Lattice="4.690010877853666 -3.835427595874452e-17 -1.6717092542503644e-17 -3.83542759587441e-17 4.690010877853666 -3.334658823398948e-16 2.345005438926833 2.345005438926833 1.2933997290743497" Properties=species:S:1:pos:R:3:forces:R:3 cutoff=-1.0 nneightol=1.2 n_minim_iter=1 energy=-325.68501885138437 stress="-0.03946703831818388 -2.2776664202541957e-16 2.97325532309149e-16 -2.2776664202541957e-16 -0.039467038318185654 -4.0680402303959446e-16 2.97325532309149e-16 -4.0680402303959446e-16 -0.03597934833231249" free_energy=-325.68501885138437 pbc="T T T"
Si      -0.00000000      -1.17250272      -0.32334993      -0.00000000      -0.00000000      -0.00000000
Si      -0.00000000       1.17250272       0.32334993       0.00000000       0.00000000       0.00000000
