2
Lattice="4.9309366975518385 -4.032453479501382e-17 -1.7575849447053944e-17 -4.032453479501341e-17 4.9309366975518385 -3.505960219358355e-16 2.4654683487759192 2.4654683487759192 1.3598416623747769" Properties=species:S:1:pos:R:3:forces:R:3 cutoff=-1.0 nneightol=1.2 n_minim_iter=1 energy=-325.6908094848889 stress="0.02948307617270836 1.819714891756274e-17 -1.2548015010278098e-15 1.819714891756274e-17 0.02948307617270738 -5.76693018623055e-16 -1.2548015010278098e-15 -5.76693018623055e-16 0.02418170987172957" free_energy=-325.6908094848889 pbc="T T T"
Si      -0.00000000      -1.23273417      -0.33996042       0.00000000      -0.00000000       0.00000000
Si      -0.00000000       1.23273418       0.33996042      -0.00000000       0.00000000      -0.00000000
