2
Lattice="4.492694047630004 -6.625430320843786e-17 -5.724059035017082e-16 -6.625430320843723e-17 4.492694047630004 6.411114338235448e-16 2.246347023815002 2.246347023815002 1.2190317907373425" Properties=species:S:1:pos:R:3:forces:R:3 cutoff=-1.0 nneightol=1.2 n_minim_iter=1 energy=-325.2754745546951 stress="-0.19420513433961006 -1.2226530801014426e-16 -1.37449651860705e-15 -1.2226530801014426e-16 -0.19420513433960382 -2.593099204782802e-15 -1.37449651860705e-15 -2.593099204782802e-15 -0.1904192410209732" free_energy=-325.2754745546951 pbc="T T T"
Si      -0.00000000      -1.12317351      -0.30475795      -0.00000000      -0.00000000       0.00000000
Si      -0.00000000       1.12317351       0.30475795       0.00000000       0.00000000      -0.00000000
