2
Lattice="4.943182707122991 -9.149420816690496e-17 8.693233855513268e-16 -9.1494208166904e-17 4.943182707122991 -1.9641750619930583e-15 2.471591353561495 2.4715913535614957 1.4475155820051804" Properties=species:S:1:pos:R:3:forces:R:3 cutoff=-1.0 nneightol=1.2 n_minim_iter=1 energy=-325.57204462922294 stress="0.048970418690289896 -1.575903058177241e-16 4.369898541864826e-17 -1.575903058177241e-16 0.04897041869029054 -9.483440031440375e-16 4.369898541864826e-17 -9.483440031440375e-16 0.045068618329688045" free_energy=-325.57204462922294 pbc="T T T"
Si      -0.00000000      -1.23579568      -0.36187890       0.00000000       0.00000000       0.00000000
Si      -0.00000000       1.23579568       0.36187890      -0.00000000      -0.00000000      -0.00000000
