2
Lattice="4.559664771572609 -3.728832309410227e-17 -1.6252486387420995e-17 -3.728832309410185e-17 4.559664771572609 -3.2419810440235727e-16 2.2798323857863045 2.2798323857863045 1.257453198684432" Properties=species:S:1:pos:R:3:forces:R:3 cutoff=-1.0 nneightol=1.2 n_minim_iter=1 energy=-325.5100303282236 stress="-0.12380072430740943 1.0926133670484677e-15 -1.3778751824984811e-15 1.0926133670484677e-15 -0.1238007243074116 -1.6171469207766608e-15 -1.3778751824984811e-15 -1.6171469207766608e-15 -0.10929724619714797" free_energy=-325.5100303282236 pbc="T T T"
Si      -0.00000000      -1.13991619      -0.31436330      -0.00000000      -0.00000000       0.00000000
Si      -0.00000000       1.13991619       0.31436330       0.00000000       0.00000000       0.00000000
