2
Lattice="4.397075637184666 -6.4844206929726e-17 -5.60223337308216e-16 -6.484420692972494e-17 4.397075637184666 6.274666016647921e-16 2.198537818592333 2.198537818592333 1.193087027778439" Properties=species:S:1:pos:R:3:forces:R:3 cutoff=-1.0 nneightol=1.2 n_minim_iter=1 energy=-324.9086894481431 stress="-0.2897167938846441 2.8004308355903457e-16 5.749325260177684e-16 2.8004308355903457e-16 -0.2897167938846489 -1.510689794313524e-15 5.749325260177684e-16 -1.510689794313524e-15 -0.2792236433130127" free_energy=-324.9086894481431 pbc="T T T"
Si      -0.00000000      -1.09926891      -0.29827176       0.00000000      -0.00000000       0.00000000
Si      -0.00000000       1.09926891       0.29827176      -0.00000000       0.00000000      -0.00000000
