2
Lattice="4.445399018993973 -6.555683769347446e-17 -5.663801307002356e-16 -6.555683769347362e-17 4.445399018993973 6.343623912000956e-16 2.2226995094969864 2.2226995094969864 1.2061989241232518" Properties=species:S:1:pos:R:3:forces:R:3 cutoff=-1.0 nneightol=1.2 n_minim_iter=1 energy=-325.1101139744117 stress="-0.24047010595084883 -3.011757769859443e-16 2.0345117739568428e-16 -3.011757769859443e-16 -0.2404701059508454 -4.751659266577366e-16 2.0345117739568428e-16 -4.751659266577366e-16 -0.2329124807763116" free_energy=-325.1101139744117 pbc="T T T"
Si      -0.00000000      -1.11134975      -0.30154973       0.00000000       0.00000000      -0.00000000
Si      -0.00000000       1.11134976       0.30154973      -0.00000000      -0.00000000      -0.00000000
