2
Lattice="4.978746395397141 -9.215246251252103e-17 8.755777256647574e-16 -9.215246251251924e-17 4.978746395397141 -1.9783063036968947e-15 2.48937319769857 2.489373197698571 1.4579297212309523" Properties=species:S:1:pos:R:3:forces:R:3 cutoff=-1.0 nneightol=1.2 n_minim_iter=1 energy=-325.5339374932919 stress="0.054074173198657184 -1.0629100320929763e-17 2.8349608526390823e-16 -1.0629100320929763e-17 0.054074173198657205 8.875453126531768e-17 2.8349608526390823e-16 8.875453126531768e-17 0.04589599614928611" free_energy=-325.5339374932919 pbc="T T T"
Si      -0.00000000      -1.24468660      -0.36448243      -0.00000000       0.00000000       0.00000000
Si      -0.00000000       1.24468660       0.36448243       0.00000000      -0.00000000      -0.00000000
