2
Lattice="4.584406895215674 -6.760680367867472e-17 -5.840908690988386e-16 -6.760680367867434e-17 4.5844068952156745 6.54198938690854e-16 2.292203447607837 2.2922034476078377 1.243916832015628" Properties=species:S:1:pos:R:3:forces:R:3 cutoff=-1.0 nneightol=1.2 n_minim_iter=2 energy=-325.4081051859548 stress="-0.15302327535856688 4.250837361766608e-16 5.817991810567301e-16 4.250837361766608e-16 -0.15302327535856255 -4.046052333954741e-15 5.817991810567301e-16 -4.046052333954741e-15 -0.15264320379576424" free_energy=-325.4081051859548 pbc="T T T"
Si      -0.00000000      -1.14610172      -0.31097921      -0.00000000      -0.00000000       0.00000000
Si      -0.00000000       1.14610173       0.31097921       0.00000000       0.00000000      -0.00000000
