2
Lattice="4.853271206600272 -3.968939689235059e-17 -1.7299018276847688e-17 -3.968939689235018e-17 4.853271206600272 -3.4507390436680816e-16 2.426635603300136 2.426635603300136 1.3384232632342716" Properties=species:S:1:pos:R:3:forces:R:3 cutoff=-1.0 nneightol=1.2 n_minim_iter=1 energy=-325.70739085691486 stress="0.015941170422246544 -3.357836923375248e-17 -9.838641572125e-16 -3.357836923375248e-17 0.015941170422246704 2.2494612274522934e-16 -9.838641572125e-16 2.2494612274522934e-16 0.013135173939358076" free_energy=-325.70739085691486 pbc="T T T"
Si      -0.00000000      -1.21331780      -0.33460582       0.00000000       0.00000000       0.00000000
Si      -0.00000000       1.21331780       0.33460582      -0.00000000      -0.00000000       0.00000000
