2
Lattice="4.731888190810336 -3.869674297201633e-17 -1.6866360195470885e-17 -3.869674297201591e-17 4.731888190810336 -3.36443413837969e-16 2.365944095405168 2.365944095405168 1.304948552018084" Properties=species:S:1:pos:R:3:forces:R:3 cutoff=-1.0 nneightol=1.2 n_minim_iter=1 energy=-325.68501885138437 stress="-0.03946703831818388 -2.2776664202541957e-16 2.97325532309149e-16 -2.2776664202541957e-16 -0.039467038318185654 -4.0680402303959446e-16 2.97325532309149e-16 -4.0680402303959446e-16 -0.03597934833231249" free_energy=-325.68501885138437 pbc="T T T"
Si      -0.00000000      -1.18297205      -0.32623714      -0.00000000      -0.00000000      -0.00000000
Si      -0.00000000       1.18297205       0.32623714       0.00000000       0.00000000       0.00000000
