2
Lattice="4.539013746423366 -6.693738541609405e-17 -5.783074113178765e-16 -6.693738541609342e-17 4.539013746423366 6.4772129601154595e-16 2.269506873211683 2.269506873211683 1.2316000147846207" Properties=species:S:1:pos:R:3:forces:R:3 cutoff=-1.0 nneightol=1.2 n_minim_iter=1 energy=-325.2754745546951 stress="-0.19420513433961006 -1.2226530801014426e-16 -1.37449651860705e-15 -1.2226530801014426e-16 -0.19420513433960382 -2.593099204782802e-15 -1.37449651860705e-15 -2.593099204782802e-15 -0.1904192410209732" free_energy=-325.2754745546951 pbc="T T T"
Si      -0.00000000      -1.13475344      -0.30790000      -0.00000000      -0.00000000       0.00000000
Si      -0.00000000       1.13475344       0.30790000       0.00000000       0.00000000      -0.00000000
