2
Lattice="4.968868470481127 -4.063473571446247e-17 -1.771105360219875e-17 -4.063473571446205e-17 4.968868470481127 -3.5329302039874115e-16 2.4844342352405633 2.4844342352405633 1.3703023939397543" Properties=species:S:1:pos:R:3:forces:R:3 cutoff=-1.0 nneightol=1.2 n_minim_iter=1 energy=-325.66538119019634 stress="0.04083913322810451 6.991574048164206e-17 -1.0367402653442573e-16 6.991574048164206e-17 0.040839133228104264 7.808081289905485e-16 -1.0367402653442573e-16 7.808081289905485e-16 0.03243546015494214" free_energy=-325.66538119019634 pbc="T T T"
Si      -0.00000000      -1.24221712      -0.34257560      -0.00000000       0.00000000       0.00000000
Si      -0.00000000       1.24221712       0.34257560       0.00000000      -0.00000000      -0.00000000
