2
Lattice="4.907099795139349 -9.082634342147639e-17 8.629777331519182e-16 -9.082634342147617e-17 4.907099795139349 -1.9498375065998026e-15 2.453549897569675 2.453549897569674 1.4369493981444907" Properties=species:S:1:pos:R:3:forces:R:3 cutoff=-1.0 nneightol=1.2 n_minim_iter=2 energy=-325.6070317080294 stress="0.042900858142919156 5.625245788077304e-17 -3.4853687355032694e-16 5.625245788077304e-17 0.042900858142918746 3.2700399276927606e-17 -3.4853687355032694e-16 3.2700399276927606e-17 0.04367031785657955" free_energy=-325.6070317080294 pbc="T T T"
Si      -0.00000000      -1.22677495      -0.35923735       0.00000000      -0.00000000       0.00000000
Si      -0.00000000       1.22677495       0.35923735      -0.00000000       0.00000000       0.00000000
