2
Lattice="4.9309366975518385 -4.0324534795013826e-17 -1.7575849447053947e-17 -4.032453479501341e-17 4.9309366975518385 -3.505960219358356e-16 2.4654683487759192 2.4654683487759192 1.3598416623747769" Properties=species:S:1:pos:R:3:forces:R:3 cutoff=-1.0 nneightol=1.2 n_minim_iter=1 energy=-325.66538119019634 stress="0.04083913322810451 6.991574048164206e-17 -1.0367402653442573e-16 6.991574048164206e-17 0.040839133228104264 7.808081289905485e-16 -1.0367402653442573e-16 7.808081289905485e-16 0.03243546015494214" free_energy=-325.66538119019634 pbc="T T T"
Si      -0.00000000      -1.23273417      -0.33996042      -0.00000000       0.00000000       0.00000000
Si      -0.00000000       1.23273418       0.33996042       0.00000000      -0.00000000      -0.00000000
