2
Lattice="4.981859754930539 -9.748254985126737e-17 8.308619171471572e-16 -9.748254985126342e-17 4.9818597549305395 -1.97093049837522e-15 2.4909298774652693 2.49092987746527 1.549051123093345" Properties=species:S:1:pos:R:3:forces:R:3 cutoff=-1.0 nneightol=1.2 n_minim_iter=1 energy=-325.4161692466034 stress="0.05521321594086844 -4.399760200829112e-17 1.9845187981650122e-16 -4.399760200829112e-17 0.05521321594086903 1.170114821491271e-16 1.9845187981650122e-16 1.170114821491271e-16 0.05601863244046007" free_energy=-325.4161692466034 pbc="T T T"
Si      -0.00000000      -1.24546494      -0.38726278      -0.00000000      -0.00000000       0.00000000
Si      -0.00000000       1.24546494       0.38726278      -0.00000000       0.00000000      -0.00000000
