2
Lattice="4.492694047630004 -6.625430320843789e-17 -5.724059035017081e-16 -6.625430320843704e-17 4.492694047630004 6.411114338235447e-16 2.246347023815002 2.246347023815002 1.2190317907373425" Properties=species:S:1:pos:R:3:forces:R:3 cutoff=-1.0 nneightol=1.2 n_minim_iter=1 energy=-325.1101139744117 stress="-0.24047010595084883 -3.011757769859443e-16 2.0345117739568428e-16 -3.011757769859443e-16 -0.2404701059508454 -4.751659266577366e-16 2.0345117739568428e-16 -4.751659266577366e-16 -0.2329124807763116" free_energy=-325.1101139744117 pbc="T T T"
Si      -0.00000000      -1.12317351      -0.30475795       0.00000000       0.00000000      -0.00000000
Si      -0.00000000       1.12317351       0.30475795      -0.00000000      -0.00000000      -0.00000000
