2
Lattice="4.397075637184666 -6.484420692972602e-17 -5.60223337308216e-16 -6.484420692972475e-17 4.397075637184666 6.274666016647921e-16 2.198537818592333 2.198537818592333 1.193087027778439" Properties=species:S:1:pos:R:3:forces:R:3 cutoff=-1.0 nneightol=1.2 n_minim_iter=1 energy=-324.67024925388324 stress="-0.337382991611966 -3.3680032549248303e-15 -2.683513333379575e-15 -3.3680032549248303e-15 -0.3373829916119602 -2.8823478041075088e-15 -2.683513333379575e-15 -2.8823478041075088e-15 -0.324994844946266" free_energy=-324.67024925388324 pbc="T T T"
Si      -0.00000000      -1.09926891      -0.29827176      -0.00000000      -0.00000000       0.00000000
Si      -0.00000000       1.09926891       0.29827176       0.00000000       0.00000000      -0.00000000
